[0] MPI startup(): Intel(R) MPI Library, Version 2021.6  Build 20220227 (id: 28877f3f32)
[0] MPI startup(): Copyright (C) 2003-2022 Intel Corporation.  All rights reserved.
[0] MPI startup(): library kind: release
[0] MPI startup(): libfabric version: 1.13.2rc1-impi
[0] MPI startup(): libfabric provider: psm2
[0] MPI startup(): File "/opt/intel/oneapi/mpi/2021.6.0/etc/tuning_icx_shm-ofi_psm2.dat" not found
[0] MPI startup(): Load tuning file: "/opt/intel/oneapi/mpi/2021.6.0/etc/tuning_icx_shm-ofi.dat"
[0] MPI startup(): File "/opt/intel/oneapi/mpi/2021.6.0/etc/tuning_icx_shm-ofi.dat" not found
[0] MPI startup(): Load tuning file: "/opt/intel/oneapi/mpi/2021.6.0/etc/tuning_clx-ap_shm-ofi.dat"
[0] MPI startup(): Rank    Pid      Node name  Pin cpu
[0] MPI startup(): 0       509820   n011.hpc   {0}
[0] MPI startup(): 1       509821   n011.hpc   {1}
[0] MPI startup(): 2       509822   n011.hpc   {2}
[0] MPI startup(): 3       509823   n011.hpc   {3}
[0] MPI startup(): 4       509824   n011.hpc   {4}
[0] MPI startup(): 5       509825   n011.hpc   {5}
[0] MPI startup(): 6       509826   n011.hpc   {6}
[0] MPI startup(): 7       509827   n011.hpc   {7}
[0] MPI startup(): 8       509828   n011.hpc   {8}
[0] MPI startup(): 9       509829   n011.hpc   {9}
[0] MPI startup(): 10      509830   n011.hpc   {10}
[0] MPI startup(): 11      509831   n011.hpc   {11}
[0] MPI startup(): 12      509832   n011.hpc   {12}
[0] MPI startup(): 13      509833   n011.hpc   {13}
[0] MPI startup(): 14      509834   n011.hpc   {14}
[0] MPI startup(): 15      509835   n011.hpc   {15}
[0] MPI startup(): I_MPI_ROOT=/opt/intel/oneapi/mpi/2021.6.0
[0] MPI startup(): I_MPI_MPIRUN=mpirun
[0] MPI startup(): I_MPI_HYDRA_TOPOLIB=hwloc
[0] MPI startup(): I_MPI_HYDRA_BOOTSTRAP=slurm
[0] MPI startup(): I_MPI_INTERNAL_MEM_POLICY=default
[0] MPI startup(): I_MPI_DEBUG=5

     Program PWSCF v.7.2 starts on 16Jan2024 at 13:56: 4 

     This program is part of the open-source Quantum ESPRESSO suite
     for quantum simulation of materials; please cite
         "P. Giannozzi et al., J. Phys.:Condens. Matter 21 395502 (2009);
         "P. Giannozzi et al., J. Phys.:Condens. Matter 29 465901 (2017);
         "P. Giannozzi et al., J. Chem. Phys. 152 154105 (2020);
          URL http://www.quantum-espresso.org", 
     in publications or presentations arising from this work. More details at
     http://www.quantum-espresso.org/quote

     Parallel version (MPI), running on    16 processors

     MPI processes distributed on     1 nodes
     144883 MiB available memory on the printing compute node when the environment starts
 
     Waiting for input...
     Reading input from standard input

     Current dimensions of program PWSCF are:
     Max number of different atomic species (ntypx) = 10
     Max number of k-points (npk) =  40000
     Max angular momentum in pseudopotentials (lmaxx) =  4

     File ./wavefunc/Si.md deleted, as requested
     Message from routine setup:
     no reason to have ecutrho>4*ecutwfc
     Message from routine setup:
     using ibrav=0 with symmetry is DISCOURAGED, use correct ibrav instead
 
     R & G space division:  proc/nbgrp/npool/nimage =      16
     Subspace diagonalization in iterative solution of the eigenvalue problem:
     a serial algorithm will be used

 
     Parallelization info
     --------------------
     sticks:   dense  smooth     PW     G-vecs:    dense   smooth      PW
     Min         147      73     21                 4733     1675     267
     Max         151      74     22                 4735     1676     269
     Sum        2371    1177    349                75745    26813    4285
 
     Using Slab Decomposition
 


     bravais-lattice index     =            0
     lattice parameter (alat)  =       7.3226  a.u.
     unit-cell volume          =     277.6376 (a.u.)^3
     number of atoms/cell      =            2
     number of atomic types    =            1
     number of electrons       =         8.00
     number of Kohn-Sham states=            8
     kinetic-energy cutoff     =      80.0000  Ry
     charge density cutoff     =     640.0000  Ry
     scf convergence threshold =      1.0E-14
     mixing beta               =       0.7000
     number of iterations used =            8  plain     mixing
     energy convergence thresh.=      1.0E-04
     force convergence thresh. =      1.0E-07
     press convergence thresh. =      1.0E-01
     Exchange-correlation= PBE
                           (   1   4   3   4   0   0   0)
     nstep                     =        20000


     celldm(1)=   7.322585  celldm(2)=   0.000000  celldm(3)=   0.000000
     celldm(4)=   0.000000  celldm(5)=   0.000000  celldm(6)=   0.000000

     crystal axes: (cart. coord. in units of alat)
               a(1) = (   0.707107   0.707107   0.000000 )  
               a(2) = (   0.000000   0.707107   0.707107 )  
               a(3) = (   0.707107   0.000000   0.707107 )  

     reciprocal axes: (cart. coord. in units 2 pi/alat)
               b(1) = (  0.707107  0.707107 -0.707107 )  
               b(2) = ( -0.707107  0.707107  0.707107 )  
               b(3) = (  0.707107 -0.707107  0.707107 )  


     PseudoPot. # 1 for Si read from file:
     ../pseudo/Si_ONCV_PBE-1.2.upf
     MD5 check sum: 7f029a58b69e3aa87b46a36c608bf45e
     Pseudo is Norm-conserving, Zval =  4.0
     Generated using ONCVPSP code by D. R. Hamann
     Using radial grid of  602 points,  4 beta functions with: 
                l(1) =   0
                l(2) =   0
                l(3) =   1
                l(4) =   1

     atomic species   valence    mass     pseudopotential
        Si             4.00    28.08550     Si( 1.00)

      cell mass =   0.10030 AMU/(a.u.)^2 

     48 Sym. Ops., with inversion, found (24 have fractional translation)


                                    s                        frac. trans.

      isym =  1     identity                                     

 cryst.   s( 1) = (     1          0          0      )
                  (     0          1          0      )
                  (     0          0          1      )

 cart.    s( 1) = (  1.0000000  0.0000000  0.0000000 )
                  (  0.0000000  1.0000000  0.0000000 )
                  (  0.0000000  0.0000000  1.0000000 )


      isym =  2     180 deg rotation - cart. axis [0,0,1]        

 cryst.   s( 2) = (    -1          0          0      )
                  (    -1          0          1      )
                  (    -1          1          0      )

 cart.    s( 2) = ( -1.0000000  0.0000000  0.0000000 )
                  (  0.0000000 -1.0000000  0.0000000 )
                  (  0.0000000  0.0000000  1.0000000 )


      isym =  3     180 deg rotation - cart. axis [0,1,0]        

 cryst.   s( 3) = (     0          1         -1      )
                  (     1          0         -1      )
                  (     0          0         -1      )

 cart.    s( 3) = ( -1.0000000  0.0000000  0.0000000 )
                  (  0.0000000  1.0000000  0.0000000 )
                  (  0.0000000  0.0000000 -1.0000000 )


      isym =  4     180 deg rotation - cart. axis [1,0,0]        

 cryst.   s( 4) = (     0         -1          1      )
                  (     0         -1          0      )
                  (     1         -1          0      )

 cart.    s( 4) = (  1.0000000  0.0000000  0.0000000 )
                  (  0.0000000 -1.0000000  0.0000000 )
                  (  0.0000000  0.0000000 -1.0000000 )


      isym =  5     180 deg rotation - cart. axis [1,1,0]        

 cryst.   s( 5) = (     1          0          0      )    f =( -0.2500000 )
                  (     1         -1          0      )       ( -0.2500000 )
                  (     1          0         -1      )       ( -0.2500000 )

 cart.    s( 5) = (  0.0000000  1.0000000  0.0000000 )    f =( -0.3535534 )
                  (  1.0000000  0.0000000  0.0000000 )       ( -0.3535534 )
                  (  0.0000000  0.0000000 -1.0000000 )       ( -0.3535534 )


      isym =  6     180 deg rotation - cart. axis [1,-1,0]       

 cryst.   s( 6) = (    -1          0          0      )    f =( -0.2500000 )
                  (     0          0         -1      )       ( -0.2500000 )
                  (     0         -1          0      )       ( -0.2500000 )

 cart.    s( 6) = (  0.0000000 -1.0000000  0.0000000 )    f =( -0.3535534 )
                  ( -1.0000000  0.0000000  0.0000000 )       ( -0.3535534 )
                  (  0.0000000  0.0000000 -1.0000000 )       ( -0.3535534 )


      isym =  7      90 deg rotation - cart. axis [0,0,-1]       

 cryst.   s( 7) = (     0         -1          1      )    f =( -0.2500000 )
                  (     0          0          1      )       ( -0.2500000 )
                  (    -1          0          1      )       ( -0.2500000 )

 cart.    s( 7) = (  0.0000000  1.0000000  0.0000000 )    f =( -0.3535534 )
                  ( -1.0000000  0.0000000  0.0000000 )       ( -0.3535534 )
                  (  0.0000000  0.0000000  1.0000000 )       ( -0.3535534 )


      isym =  8      90 deg rotation - cart. axis [0,0,1]        

 cryst.   s( 8) = (     0          1         -1      )    f =( -0.2500000 )
                  (    -1          1          0      )       ( -0.2500000 )
                  (     0          1          0      )       ( -0.2500000 )

 cart.    s( 8) = (  0.0000000 -1.0000000  0.0000000 )    f =( -0.3535534 )
                  (  1.0000000  0.0000000  0.0000000 )       ( -0.3535534 )
                  (  0.0000000  0.0000000  1.0000000 )       ( -0.3535534 )


      isym =  9     180 deg rotation - cart. axis [1,0,1]        

 cryst.   s( 9) = (    -1          0          1      )    f =( -0.2500000 )
                  (     0         -1          1      )       ( -0.2500000 )
                  (     0          0          1      )       ( -0.2500000 )

 cart.    s( 9) = (  0.0000000  0.0000000  1.0000000 )    f =( -0.3535534 )
                  (  0.0000000 -1.0000000  0.0000000 )       ( -0.3535534 )
                  (  1.0000000  0.0000000  0.0000000 )       ( -0.3535534 )


      isym = 10     180 deg rotation - cart. axis [-1,0,1]       

 cryst.   s(10) = (     0         -1          0      )    f =( -0.2500000 )
                  (    -1          0          0      )       ( -0.2500000 )
                  (     0          0         -1      )       ( -0.2500000 )

 cart.    s(10) = (  0.0000000  0.0000000 -1.0000000 )    f =( -0.3535534 )
                  (  0.0000000 -1.0000000  0.0000000 )       ( -0.3535534 )
                  ( -1.0000000  0.0000000  0.0000000 )       ( -0.3535534 )


      isym = 11      90 deg rotation - cart. axis [0,1,0]        

 cryst.   s(11) = (     1          0         -1      )    f =( -0.2500000 )
                  (     1          0          0      )       ( -0.2500000 )
                  (     1         -1          0      )       ( -0.2500000 )

 cart.    s(11) = (  0.0000000  0.0000000  1.0000000 )    f =( -0.3535534 )
                  (  0.0000000  1.0000000  0.0000000 )       ( -0.3535534 )
                  ( -1.0000000  0.0000000  0.0000000 )       ( -0.3535534 )


      isym = 12      90 deg rotation - cart. axis [0,-1,0]       

 cryst.   s(12) = (     0          1          0      )    f =( -0.2500000 )
                  (     0          1         -1      )       ( -0.2500000 )
                  (    -1          1          0      )       ( -0.2500000 )

 cart.    s(12) = (  0.0000000  0.0000000 -1.0000000 )    f =( -0.3535534 )
                  (  0.0000000  1.0000000  0.0000000 )       ( -0.3535534 )
                  (  1.0000000  0.0000000  0.0000000 )       ( -0.3535534 )


      isym = 13     180 deg rotation - cart. axis [0,1,1]        

 cryst.   s(13) = (    -1          1          0      )    f =( -0.2500000 )
                  (     0          1          0      )       ( -0.2500000 )
                  (     0          1         -1      )       ( -0.2500000 )

 cart.    s(13) = ( -1.0000000  0.0000000  0.0000000 )    f =( -0.3535534 )
                  (  0.0000000  0.0000000  1.0000000 )       ( -0.3535534 )
                  (  0.0000000  1.0000000  0.0000000 )       ( -0.3535534 )


      isym = 14     180 deg rotation - cart. axis [0,1,-1]       

 cryst.   s(14) = (     0          0         -1      )    f =( -0.2500000 )
                  (     0         -1          0      )       ( -0.2500000 )
                  (    -1          0          0      )       ( -0.2500000 )

 cart.    s(14) = ( -1.0000000  0.0000000  0.0000000 )    f =( -0.3535534 )
                  (  0.0000000  0.0000000 -1.0000000 )       ( -0.3535534 )
                  (  0.0000000 -1.0000000  0.0000000 )       ( -0.3535534 )


      isym = 15      90 deg rotation - cart. axis [-1,0,0]       

 cryst.   s(15) = (     1         -1          0      )    f =( -0.2500000 )
                  (     1          0         -1      )       ( -0.2500000 )
                  (     1          0          0      )       ( -0.2500000 )

 cart.    s(15) = (  1.0000000  0.0000000  0.0000000 )    f =( -0.3535534 )
                  (  0.0000000  0.0000000  1.0000000 )       ( -0.3535534 )
                  (  0.0000000 -1.0000000  0.0000000 )       ( -0.3535534 )


      isym = 16      90 deg rotation - cart. axis [1,0,0]        

 cryst.   s(16) = (     0          0          1      )    f =( -0.2500000 )
                  (    -1          0          1      )       ( -0.2500000 )
                  (     0         -1          1      )       ( -0.2500000 )

 cart.    s(16) = (  1.0000000  0.0000000  0.0000000 )    f =( -0.3535534 )
                  (  0.0000000  0.0000000 -1.0000000 )       ( -0.3535534 )
                  (  0.0000000  1.0000000  0.0000000 )       ( -0.3535534 )


      isym = 17     120 deg rotation - cart. axis [-1,-1,-1]     

 cryst.   s(17) = (     0          0          1      )
                  (     1          0          0      )
                  (     0          1          0      )

 cart.    s(17) = (  0.0000000  1.0000000  0.0000000 )
                  (  0.0000000  0.0000000  1.0000000 )
                  (  1.0000000  0.0000000  0.0000000 )


      isym = 18     120 deg rotation - cart. axis [-1,1,1]       

 cryst.   s(18) = (     0          0         -1      )
                  (     0          1         -1      )
                  (     1          0         -1      )

 cart.    s(18) = (  0.0000000 -1.0000000  0.0000000 )
                  (  0.0000000  0.0000000  1.0000000 )
                  ( -1.0000000  0.0000000  0.0000000 )


      isym = 19     120 deg rotation - cart. axis [1,1,-1]       

 cryst.   s(19) = (     1         -1          0      )
                  (     0         -1          1      )
                  (     0         -1          0      )

 cart.    s(19) = (  0.0000000  1.0000000  0.0000000 )
                  (  0.0000000  0.0000000 -1.0000000 )
                  ( -1.0000000  0.0000000  0.0000000 )


      isym = 20     120 deg rotation - cart. axis [1,-1,1]       

 cryst.   s(20) = (    -1          1          0      )
                  (    -1          0          0      )
                  (    -1          0          1      )

 cart.    s(20) = (  0.0000000 -1.0000000  0.0000000 )
                  (  0.0000000  0.0000000 -1.0000000 )
                  (  1.0000000  0.0000000  0.0000000 )


      isym = 21     120 deg rotation - cart. axis [1,1,1]        

 cryst.   s(21) = (     0          1          0      )
                  (     0          0          1      )
                  (     1          0          0      )

 cart.    s(21) = (  0.0000000  0.0000000  1.0000000 )
                  (  1.0000000  0.0000000  0.0000000 )
                  (  0.0000000  1.0000000  0.0000000 )


      isym = 22     120 deg rotation - cart. axis [-1,1,-1]      

 cryst.   s(22) = (     0         -1          0      )
                  (     1         -1          0      )
                  (     0         -1          1      )

 cart.    s(22) = (  0.0000000  0.0000000  1.0000000 )
                  ( -1.0000000  0.0000000  0.0000000 )
                  (  0.0000000 -1.0000000  0.0000000 )


      isym = 23     120 deg rotation - cart. axis [1,-1,-1]      

 cryst.   s(23) = (    -1          0          1      )
                  (    -1          1          0      )
                  (    -1          0          0      )

 cart.    s(23) = (  0.0000000  0.0000000 -1.0000000 )
                  ( -1.0000000  0.0000000  0.0000000 )
                  (  0.0000000  1.0000000  0.0000000 )


      isym = 24     120 deg rotation - cart. axis [-1,-1,1]      

 cryst.   s(24) = (     1          0         -1      )
                  (     0          0         -1      )
                  (     0          1         -1      )

 cart.    s(24) = (  0.0000000  0.0000000 -1.0000000 )
                  (  1.0000000  0.0000000  0.0000000 )
                  (  0.0000000 -1.0000000  0.0000000 )


      isym = 25     inversion                                    

 cryst.   s(25) = (    -1          0          0      )    f =( -0.2500000 )
                  (     0         -1          0      )       ( -0.2500000 )
                  (     0          0         -1      )       ( -0.2500000 )

 cart.    s(25) = ( -1.0000000  0.0000000  0.0000000 )    f =( -0.3535534 )
                  (  0.0000000 -1.0000000  0.0000000 )       ( -0.3535534 )
                  (  0.0000000  0.0000000 -1.0000000 )       ( -0.3535534 )


      isym = 26     inv. 180 deg rotation - cart. axis [0,0,1]   

 cryst.   s(26) = (     1          0          0      )    f =( -0.2500000 )
                  (     1          0         -1      )       ( -0.2500000 )
                  (     1         -1          0      )       ( -0.2500000 )

 cart.    s(26) = (  1.0000000  0.0000000  0.0000000 )    f =( -0.3535534 )
                  (  0.0000000  1.0000000  0.0000000 )       ( -0.3535534 )
                  (  0.0000000  0.0000000 -1.0000000 )       ( -0.3535534 )


      isym = 27     inv. 180 deg rotation - cart. axis [0,1,0]   

 cryst.   s(27) = (     0         -1          1      )    f =( -0.2500000 )
                  (    -1          0          1      )       ( -0.2500000 )
                  (     0          0          1      )       ( -0.2500000 )

 cart.    s(27) = (  1.0000000  0.0000000  0.0000000 )    f =( -0.3535534 )
                  (  0.0000000 -1.0000000  0.0000000 )       ( -0.3535534 )
                  (  0.0000000  0.0000000  1.0000000 )       ( -0.3535534 )


      isym = 28     inv. 180 deg rotation - cart. axis [1,0,0]   

 cryst.   s(28) = (     0          1         -1      )    f =( -0.2500000 )
                  (     0          1          0      )       ( -0.2500000 )
                  (    -1          1          0      )       ( -0.2500000 )

 cart.    s(28) = ( -1.0000000  0.0000000  0.0000000 )    f =( -0.3535534 )
                  (  0.0000000  1.0000000  0.0000000 )       ( -0.3535534 )
                  (  0.0000000  0.0000000  1.0000000 )       ( -0.3535534 )


      isym = 29     inv. 180 deg rotation - cart. axis [1,1,0]   

 cryst.   s(29) = (    -1          0          0      )
                  (    -1          1          0      )
                  (    -1          0          1      )

 cart.    s(29) = (  0.0000000 -1.0000000  0.0000000 )
                  ( -1.0000000  0.0000000  0.0000000 )
                  (  0.0000000  0.0000000  1.0000000 )


      isym = 30     inv. 180 deg rotation - cart. axis [1,-1,0]  

 cryst.   s(30) = (     1          0          0      )
                  (     0          0          1      )
                  (     0          1          0      )

 cart.    s(30) = (  0.0000000  1.0000000  0.0000000 )
                  (  1.0000000  0.0000000  0.0000000 )
                  (  0.0000000  0.0000000  1.0000000 )


      isym = 31     inv.  90 deg rotation - cart. axis [0,0,-1]  

 cryst.   s(31) = (     0          1         -1      )
                  (     0          0         -1      )
                  (     1          0         -1      )

 cart.    s(31) = (  0.0000000 -1.0000000  0.0000000 )
                  (  1.0000000  0.0000000  0.0000000 )
                  (  0.0000000  0.0000000 -1.0000000 )


      isym = 32     inv.  90 deg rotation - cart. axis [0,0,1]   

 cryst.   s(32) = (     0         -1          1      )
                  (     1         -1          0      )
                  (     0         -1          0      )

 cart.    s(32) = (  0.0000000  1.0000000  0.0000000 )
                  ( -1.0000000  0.0000000  0.0000000 )
                  (  0.0000000  0.0000000 -1.0000000 )


      isym = 33     inv. 180 deg rotation - cart. axis [1,0,1]   

 cryst.   s(33) = (     1          0         -1      )
                  (     0          1         -1      )
                  (     0          0         -1      )

 cart.    s(33) = (  0.0000000  0.0000000 -1.0000000 )
                  (  0.0000000  1.0000000  0.0000000 )
                  ( -1.0000000  0.0000000  0.0000000 )


      isym = 34     inv. 180 deg rotation - cart. axis [-1,0,1]  

 cryst.   s(34) = (     0          1          0      )
                  (     1          0          0      )
                  (     0          0          1      )

 cart.    s(34) = (  0.0000000  0.0000000  1.0000000 )
                  (  0.0000000  1.0000000  0.0000000 )
                  (  1.0000000  0.0000000  0.0000000 )


      isym = 35     inv.  90 deg rotation - cart. axis [0,1,0]   

 cryst.   s(35) = (    -1          0          1      )
                  (    -1          0          0      )
                  (    -1          1          0      )

 cart.    s(35) = (  0.0000000  0.0000000 -1.0000000 )
                  (  0.0000000 -1.0000000  0.0000000 )
                  (  1.0000000  0.0000000  0.0000000 )


      isym = 36     inv.  90 deg rotation - cart. axis [0,-1,0]  

 cryst.   s(36) = (     0         -1          0      )
                  (     0         -1          1      )
                  (     1         -1          0      )

 cart.    s(36) = (  0.0000000  0.0000000  1.0000000 )
                  (  0.0000000 -1.0000000  0.0000000 )
                  ( -1.0000000  0.0000000  0.0000000 )


      isym = 37     inv. 180 deg rotation - cart. axis [0,1,1]   

 cryst.   s(37) = (     1         -1          0      )
                  (     0         -1          0      )
                  (     0         -1          1      )

 cart.    s(37) = (  1.0000000  0.0000000  0.0000000 )
                  (  0.0000000  0.0000000 -1.0000000 )
                  (  0.0000000 -1.0000000  0.0000000 )


      isym = 38     inv. 180 deg rotation - cart. axis [0,1,-1]  

 cryst.   s(38) = (     0          0          1      )
                  (     0          1          0      )
                  (     1          0          0      )

 cart.    s(38) = (  1.0000000  0.0000000  0.0000000 )
                  (  0.0000000  0.0000000  1.0000000 )
                  (  0.0000000  1.0000000  0.0000000 )


      isym = 39     inv.  90 deg rotation - cart. axis [-1,0,0]  

 cryst.   s(39) = (    -1          1          0      )
                  (    -1          0          1      )
                  (    -1          0          0      )

 cart.    s(39) = ( -1.0000000  0.0000000  0.0000000 )
                  (  0.0000000  0.0000000 -1.0000000 )
                  (  0.0000000  1.0000000  0.0000000 )


      isym = 40     inv.  90 deg rotation - cart. axis [1,0,0]   

 cryst.   s(40) = (     0          0         -1      )
                  (     1          0         -1      )
                  (     0          1         -1      )

 cart.    s(40) = ( -1.0000000  0.0000000  0.0000000 )
                  (  0.0000000  0.0000000  1.0000000 )
                  (  0.0000000 -1.0000000  0.0000000 )


      isym = 41     inv. 120 deg rotation - cart. axis [-1,-1,-1]

 cryst.   s(41) = (     0          0         -1      )    f =( -0.2500000 )
                  (    -1          0          0      )       ( -0.2500000 )
                  (     0         -1          0      )       ( -0.2500000 )

 cart.    s(41) = (  0.0000000 -1.0000000  0.0000000 )    f =( -0.3535534 )
                  (  0.0000000  0.0000000 -1.0000000 )       ( -0.3535534 )
                  ( -1.0000000  0.0000000  0.0000000 )       ( -0.3535534 )


      isym = 42     inv. 120 deg rotation - cart. axis [-1,1,1]  

 cryst.   s(42) = (     0          0          1      )    f =( -0.2500000 )
                  (     0         -1          1      )       ( -0.2500000 )
                  (    -1          0          1      )       ( -0.2500000 )

 cart.    s(42) = (  0.0000000  1.0000000  0.0000000 )    f =( -0.3535534 )
                  (  0.0000000  0.0000000 -1.0000000 )       ( -0.3535534 )
                  (  1.0000000  0.0000000  0.0000000 )       ( -0.3535534 )


      isym = 43     inv. 120 deg rotation - cart. axis [1,1,-1]  

 cryst.   s(43) = (    -1          1          0      )    f =( -0.2500000 )
                  (     0          1         -1      )       ( -0.2500000 )
                  (     0          1          0      )       ( -0.2500000 )

 cart.    s(43) = (  0.0000000 -1.0000000  0.0000000 )    f =( -0.3535534 )
                  (  0.0000000  0.0000000  1.0000000 )       ( -0.3535534 )
                  (  1.0000000  0.0000000  0.0000000 )       ( -0.3535534 )


      isym = 44     inv. 120 deg rotation - cart. axis [1,-1,1]  

 cryst.   s(44) = (     1         -1          0      )    f =( -0.2500000 )
                  (     1          0          0      )       ( -0.2500000 )
                  (     1          0         -1      )       ( -0.2500000 )

 cart.    s(44) = (  0.0000000  1.0000000  0.0000000 )    f =( -0.3535534 )
                  (  0.0000000  0.0000000  1.0000000 )       ( -0.3535534 )
                  ( -1.0000000  0.0000000  0.0000000 )       ( -0.3535534 )


      isym = 45     inv. 120 deg rotation - cart. axis [1,1,1]   

 cryst.   s(45) = (     0         -1          0      )    f =( -0.2500000 )
                  (     0          0         -1      )       ( -0.2500000 )
                  (    -1          0          0      )       ( -0.2500000 )

 cart.    s(45) = (  0.0000000  0.0000000 -1.0000000 )    f =( -0.3535534 )
                  ( -1.0000000  0.0000000  0.0000000 )       ( -0.3535534 )
                  (  0.0000000 -1.0000000  0.0000000 )       ( -0.3535534 )


      isym = 46     inv. 120 deg rotation - cart. axis [-1,1,-1] 

 cryst.   s(46) = (     0          1          0      )    f =( -0.2500000 )
                  (    -1          1          0      )       ( -0.2500000 )
                  (     0          1         -1      )       ( -0.2500000 )

 cart.    s(46) = (  0.0000000  0.0000000 -1.0000000 )    f =( -0.3535534 )
                  (  1.0000000  0.0000000  0.0000000 )       ( -0.3535534 )
                  (  0.0000000  1.0000000  0.0000000 )       ( -0.3535534 )


      isym = 47     inv. 120 deg rotation - cart. axis [1,-1,-1] 

 cryst.   s(47) = (     1          0         -1      )    f =( -0.2500000 )
                  (     1         -1          0      )       ( -0.2500000 )
                  (     1          0          0      )       ( -0.2500000 )

 cart.    s(47) = (  0.0000000  0.0000000  1.0000000 )    f =( -0.3535534 )
                  (  1.0000000  0.0000000  0.0000000 )       ( -0.3535534 )
                  (  0.0000000 -1.0000000  0.0000000 )       ( -0.3535534 )


      isym = 48     inv. 120 deg rotation - cart. axis [-1,-1,1] 

 cryst.   s(48) = (    -1          0          1      )    f =( -0.2500000 )
                  (     0          0          1      )       ( -0.2500000 )
                  (     0         -1          1      )       ( -0.2500000 )

 cart.    s(48) = (  0.0000000  0.0000000  1.0000000 )    f =( -0.3535534 )
                  ( -1.0000000  0.0000000  0.0000000 )       ( -0.3535534 )
                  (  0.0000000  1.0000000  0.0000000 )       ( -0.3535534 )


   Cartesian axes

     site n.     atom                  positions (alat units)
         1           Si  tau(   1) = (   0.0000000   0.0000000   0.0000000  )
         2           Si  tau(   2) = (   0.3535534   0.3535534   0.3535534  )

   Crystallographic axes

     site n.     atom                  positions (cryst. coord.)
         1           Si  tau(   1) = (  0.0000000  0.0000000  0.0000000  )
         2           Si  tau(   2) = (  0.2500000  0.2500000  0.2500000  )

     number of k points=    29  Gaussian smearing, width (Ry)=  0.0019
                       cart. coord. in units 2pi/alat
        k(    1) = (   0.0000000   0.0000000   0.0000000), wk =   0.0039062
        k(    2) = (   0.0883883  -0.0883883   0.0883883), wk =   0.0312500
        k(    3) = (   0.1767767  -0.1767767   0.1767767), wk =   0.0312500
        k(    4) = (   0.2651650  -0.2651650   0.2651650), wk =   0.0312500
        k(    5) = (  -0.3535534   0.3535534  -0.3535534), wk =   0.0156250
        k(    6) = (   0.0000000   0.0000000   0.1767767), wk =   0.0234375
        k(    7) = (   0.0883883  -0.0883883   0.2651650), wk =   0.0937500
        k(    8) = (   0.1767767  -0.1767767   0.3535534), wk =   0.0937500
        k(    9) = (  -0.4419417   0.4419417  -0.2651650), wk =   0.0937500
        k(   10) = (  -0.3535534   0.3535534  -0.1767767), wk =   0.0937500
        k(   11) = (  -0.2651650   0.2651650  -0.0883883), wk =   0.0937500
        k(   12) = (  -0.1767767   0.1767767   0.0000000), wk =   0.0468750
        k(   13) = (   0.0000000   0.0000000   0.3535534), wk =   0.0234375
        k(   14) = (   0.0883883  -0.0883883   0.4419417), wk =   0.0937500
        k(   15) = (  -0.5303301   0.5303301  -0.1767767), wk =   0.0937500
        k(   16) = (  -0.4419417   0.4419417  -0.0883883), wk =   0.0937500
        k(   17) = (  -0.3535534   0.3535534   0.0000000), wk =   0.0468750
        k(   18) = (   0.0000000   0.0000000   0.5303301), wk =   0.0234375
        k(   19) = (  -0.6187184   0.6187184  -0.0883883), wk =   0.0937500
        k(   20) = (  -0.5303301   0.5303301   0.0000000), wk =   0.0468750
        k(   21) = (   0.0000000   0.0000000  -0.7071068), wk =   0.0117188
        k(   22) = (   0.1767767   0.0000000   0.3535534), wk =   0.0937500
        k(   23) = (  -0.4419417   0.6187184  -0.2651650), wk =   0.1875000
        k(   24) = (  -0.3535534   0.5303301  -0.1767767), wk =   0.0937500
        k(   25) = (  -0.5303301   0.7071068  -0.1767767), wk =   0.0937500
        k(   26) = (  -0.4419417   0.6187184  -0.0883883), wk =   0.1875000
        k(   27) = (  -0.3535534   0.5303301   0.0000000), wk =   0.0937500
        k(   28) = (   0.1767767   0.0000000  -0.7071068), wk =   0.0468750
        k(   29) = (   0.3535534   0.0000000  -0.7071068), wk =   0.0234375

                       cryst. coord.
        k(    1) = (   0.0000000   0.0000000   0.0000000), wk =   0.0039062
        k(    2) = (   0.0000000   0.0000000   0.1250000), wk =   0.0312500
        k(    3) = (   0.0000000   0.0000000   0.2500000), wk =   0.0312500
        k(    4) = (   0.0000000   0.0000000   0.3750000), wk =   0.0312500
        k(    5) = (   0.0000000   0.0000000  -0.5000000), wk =   0.0156250
        k(    6) = (   0.0000000   0.1250000   0.1250000), wk =   0.0234375
        k(    7) = (   0.0000000   0.1250000   0.2500000), wk =   0.0937500
        k(    8) = (   0.0000000   0.1250000   0.3750000), wk =   0.0937500
        k(    9) = (   0.0000000   0.1250000  -0.5000000), wk =   0.0937500
        k(   10) = (   0.0000000   0.1250000  -0.3750000), wk =   0.0937500
        k(   11) = (   0.0000000   0.1250000  -0.2500000), wk =   0.0937500
        k(   12) = (   0.0000000   0.1250000  -0.1250000), wk =   0.0468750
        k(   13) = (   0.0000000   0.2500000   0.2500000), wk =   0.0234375
        k(   14) = (   0.0000000   0.2500000   0.3750000), wk =   0.0937500
        k(   15) = (   0.0000000   0.2500000  -0.5000000), wk =   0.0937500
        k(   16) = (   0.0000000   0.2500000  -0.3750000), wk =   0.0937500
        k(   17) = (   0.0000000   0.2500000  -0.2500000), wk =   0.0468750
        k(   18) = (   0.0000000   0.3750000   0.3750000), wk =   0.0234375
        k(   19) = (   0.0000000   0.3750000  -0.5000000), wk =   0.0937500
        k(   20) = (   0.0000000   0.3750000  -0.3750000), wk =   0.0468750
        k(   21) = (   0.0000000  -0.5000000  -0.5000000), wk =   0.0117188
        k(   22) = (   0.1250000   0.2500000   0.3750000), wk =   0.0937500
        k(   23) = (   0.1250000   0.2500000  -0.5000000), wk =   0.1875000
        k(   24) = (   0.1250000   0.2500000  -0.3750000), wk =   0.0937500
        k(   25) = (   0.1250000   0.3750000  -0.5000000), wk =   0.0937500
        k(   26) = (   0.1250000   0.3750000  -0.3750000), wk =   0.1875000
        k(   27) = (   0.1250000   0.3750000  -0.2500000), wk =   0.0937500
        k(   28) = (   0.1250000  -0.5000000  -0.3750000), wk =   0.0468750
        k(   29) = (   0.2500000  -0.5000000  -0.2500000), wk =   0.0234375

     Dense  grid:    75745 G-vectors     FFT dimensions: (  60,  60,  60)

     Smooth grid:    26813 G-vectors     FFT dimensions: (  48,  48,  48)

     Dynamical RAM for                 wfc:       0.03 MB

     Dynamical RAM for     wfc (w. buffer):       0.77 MB

     Dynamical RAM for           str. fact:       0.07 MB

     Dynamical RAM for           local pot:       0.00 MB

     Dynamical RAM for          nlocal pot:       0.05 MB

     Dynamical RAM for                qrad:       1.16 MB

     Dynamical RAM for          rho,v,vnew:       0.55 MB

     Dynamical RAM for               rhoin:       0.18 MB

     Dynamical RAM for            rho*nmix:       1.16 MB

     Dynamical RAM for           G-vectors:       0.28 MB

     Dynamical RAM for          h,s,v(r/c):       0.01 MB

     Dynamical RAM for          <psi|beta>:       0.00 MB

     Dynamical RAM for                 psi:       0.05 MB

     Dynamical RAM for                hpsi:       0.05 MB

     Dynamical RAM for      wfcinit/wfcrot:       0.05 MB

     Estimated static dynamical RAM per process >       3.75 MB

     Estimated max dynamical RAM per process >       5.03 MB

     Estimated total dynamical RAM >      80.42 MB

     Initial potential from superposition of free atoms

     starting charge       7.9075, renormalised to       8.0000
     Starting wfcs are random

     total cpu time spent up to now is        0.1 secs

     Self-consistent Calculation

     iteration #  1     ecut=    80.00 Ry     beta= 0.70
     Davidson diagonalization with overlap

---- Real-time Memory Report at c_bands before calling an iterative solver
           130 MiB given to the printing process from OS
             0 MiB allocation reported by mallinfo(arena+hblkhd)
        144563 MiB available memory on the node where the printing process lives
------------------
     ethr =  1.00E-02,  avg # of iterations =  8.7

     Threshold (ethr) on eigenvalues was too large:
     Diagonalizing with lowered threshold

     Davidson diagonalization with overlap

---- Real-time Memory Report at c_bands before calling an iterative solver
           133 MiB given to the printing process from OS
             0 MiB allocation reported by mallinfo(arena+hblkhd)
        144561 MiB available memory on the node where the printing process lives
------------------
     ethr =  6.14E-04,  avg # of iterations =  2.0

     total cpu time spent up to now is        0.4 secs

     total energy              =     -15.76379058 Ry
     estimated scf accuracy    <       0.05063825 Ry

     iteration #  2     ecut=    80.00 Ry     beta= 0.70
     Davidson diagonalization with overlap

---- Real-time Memory Report at c_bands before calling an iterative solver
           136 MiB given to the printing process from OS
             0 MiB allocation reported by mallinfo(arena+hblkhd)
        144538 MiB available memory on the node where the printing process lives
------------------
     ethr =  6.33E-04,  avg # of iterations =  1.0

     total cpu time spent up to now is        0.4 secs

     total energy              =     -15.76621374 Ry
     estimated scf accuracy    <       0.00208561 Ry

     iteration #  3     ecut=    80.00 Ry     beta= 0.70
     Davidson diagonalization with overlap

---- Real-time Memory Report at c_bands before calling an iterative solver
           136 MiB given to the printing process from OS
             0 MiB allocation reported by mallinfo(arena+hblkhd)
        144536 MiB available memory on the node where the printing process lives
------------------
     ethr =  2.61E-05,  avg # of iterations =  4.9

     total cpu time spent up to now is        0.5 secs

     total energy              =     -15.76638102 Ry
     estimated scf accuracy    <       0.00003931 Ry

     iteration #  4     ecut=    80.00 Ry     beta= 0.70
     Davidson diagonalization with overlap

---- Real-time Memory Report at c_bands before calling an iterative solver
           136 MiB given to the printing process from OS
             0 MiB allocation reported by mallinfo(arena+hblkhd)
        144534 MiB available memory on the node where the printing process lives
------------------
     ethr =  4.91E-07,  avg # of iterations =  4.2

     total cpu time spent up to now is        0.6 secs

     total energy              =     -15.76639518 Ry
     estimated scf accuracy    <       0.00000011 Ry

     iteration #  5     ecut=    80.00 Ry     beta= 0.70
     Davidson diagonalization with overlap

---- Real-time Memory Report at c_bands before calling an iterative solver
           136 MiB given to the printing process from OS
             0 MiB allocation reported by mallinfo(arena+hblkhd)
        144534 MiB available memory on the node where the printing process lives
------------------
     ethr =  1.36E-09,  avg # of iterations =  4.0

     total cpu time spent up to now is        0.7 secs

     total energy              =     -15.76639560 Ry
     estimated scf accuracy    <          5.7E-09 Ry

     iteration #  6     ecut=    80.00 Ry     beta= 0.70
     Davidson diagonalization with overlap

---- Real-time Memory Report at c_bands before calling an iterative solver
           136 MiB given to the printing process from OS
             0 MiB allocation reported by mallinfo(arena+hblkhd)
        144533 MiB available memory on the node where the printing process lives
------------------
     ethr =  7.09E-11,  avg # of iterations =  2.2

     total cpu time spent up to now is        0.7 secs

     total energy              =     -15.76639561 Ry
     estimated scf accuracy    <          1.0E-10 Ry

     iteration #  7     ecut=    80.00 Ry     beta= 0.70
     Davidson diagonalization with overlap

---- Real-time Memory Report at c_bands before calling an iterative solver
           137 MiB given to the printing process from OS
             0 MiB allocation reported by mallinfo(arena+hblkhd)
        144532 MiB available memory on the node where the printing process lives
------------------
     ethr =  1.31E-12,  avg # of iterations =  2.8

     total cpu time spent up to now is        0.8 secs

     total energy              =     -15.76639561 Ry
     estimated scf accuracy    <          5.9E-12 Ry

     iteration #  8     ecut=    80.00 Ry     beta= 0.70
     Davidson diagonalization with overlap

---- Real-time Memory Report at c_bands before calling an iterative solver
           137 MiB given to the printing process from OS
             0 MiB allocation reported by mallinfo(arena+hblkhd)
        144530 MiB available memory on the node where the printing process lives
------------------
     ethr =  1.00E-13,  avg # of iterations =  2.3

     total cpu time spent up to now is        0.9 secs

     total energy              =     -15.76639561 Ry
     estimated scf accuracy    <          1.8E-14 Ry

     iteration #  9     ecut=    80.00 Ry     beta= 0.70
     Davidson diagonalization with overlap

---- Real-time Memory Report at c_bands before calling an iterative solver
           137 MiB given to the printing process from OS
             0 MiB allocation reported by mallinfo(arena+hblkhd)
        144529 MiB available memory on the node where the printing process lives
------------------
     ethr =  1.00E-13,  avg # of iterations =  1.0

     total cpu time spent up to now is        1.0 secs

     End of self-consistent calculation

          k = 0.0000 0.0000 0.0000 (  3383 PWs)   bands (ev):

    -5.8302   5.9431   5.9431   5.9431   8.4909   8.4909   8.4909   8.9725

     occupation numbers 
     1.0000   1.0000   1.0000   1.0000   0.0000   0.0000   0.0000   0.0000

          k = 0.0884-0.0884 0.0884 (  3374 PWs)   bands (ev):

    -5.6309   4.3522   5.6638   5.6638   8.3506   8.9022   8.9022  10.3976

     occupation numbers 
     1.0000   1.0000   1.0000   1.0000   0.0000   0.0000   0.0000   0.0000

          k = 0.1768-0.1768 0.1768 (  3371 PWs)   bands (ev):

    -5.0502   2.0667   5.2057   5.2057   7.8601   9.4162   9.4162  12.6193

     occupation numbers 
     1.0000   1.0000   1.0000   1.0000   0.0000   0.0000   0.0000   0.0000

          k = 0.2652-0.2652 0.2652 (  3359 PWs)   bands (ev):

    -4.1818   0.0934   4.8858   4.8858   7.4932   9.3806   9.3806  13.7509

     occupation numbers 
     1.0000   1.0000   1.0000   1.0000   0.0000   0.0000   0.0000   0.0000

          k =-0.3536 0.3536-0.3536 (  3354 PWs)   bands (ev):

    -3.5684  -0.8970   4.7761   4.7761   7.3642   9.2781   9.2781  13.6210

     occupation numbers 
     1.0000   1.0000   1.0000   1.0000   0.0000   0.0000   0.0000   0.0000

          k = 0.0000 0.0000 0.1768 (  3371 PWs)   bands (ev):

    -5.5637   4.5802   5.1647   5.1647   7.9501   9.5941   9.5941  10.0821

     occupation numbers 
     1.0000   1.0000   1.0000   1.0000   0.0000   0.0000   0.0000   0.0000

          k = 0.0884-0.0884 0.2652 (  3366 PWs)   bands (ev):

    -5.1065   2.7395   4.6667   4.7240   8.0747   9.5262  10.3434  10.6515

     occupation numbers 
     1.0000   1.0000   1.0000   1.0000   0.0000   0.0000   0.0000   0.0000

          k = 0.1768-0.1768 0.3536 (  3345 PWs)   bands (ev):

    -4.3132   0.7301   4.1432   4.4039   8.1473   9.5041  10.3595  11.3472

     occupation numbers 
     1.0000   1.0000   1.0000   1.0000   0.0000   0.0000   0.0000   0.0000

          k =-0.4419 0.4419-0.2652 (  3351 PWs)   bands (ev):

    -3.4813  -0.6900   3.7092   4.4257   8.0765   9.4054  10.0156  13.2013

     occupation numbers 
     1.0000   1.0000   1.0000   1.0000   0.0000   0.0000   0.0000   0.0000

          k =-0.3536 0.3536-0.1768 (  3353 PWs)   bands (ev):

    -3.7163  -0.3317   3.5363   4.7125   8.2205   9.5272   9.7886  13.7213

     occupation numbers 
     1.0000   1.0000   1.0000   1.0000   0.0000   0.0000   0.0000   0.0000

          k =-0.2652 0.2652-0.0884 (  3372 PWs)   bands (ev):

    -4.6111   1.3723   3.6917   5.1894   8.5603   9.5876   9.7540  12.1038

     occupation numbers 
     1.0000   1.0000   1.0000   1.0000   0.0000   0.0000   0.0000   0.0000

          k =-0.1768 0.1768 0.0000 (  3373 PWs)   bands (ev):

    -5.3029   3.2680   4.3678   5.6564   8.8722   9.0393   9.2498  11.3138

     occupation numbers 
     1.0000   1.0000   1.0000   1.0000   0.0000   0.0000   0.0000   0.0000

          k = 0.0000 0.0000 0.3536 (  3359 PWs)   bands (ev):

    -4.7740   2.4190   4.1114   4.1114   7.0876   9.0557  11.5934  11.5934

     occupation numbers 
     1.0000   1.0000   1.0000   1.0000   0.0000   0.0000   0.0000   0.0000

          k = 0.0884-0.0884 0.4419 (  3364 PWs)   bands (ev):

    -4.0818   1.0314   3.3484   3.8008   7.3048   8.8266  11.8018  12.1081

     occupation numbers 
     1.0000   1.0000   1.0000   1.0000   0.0000   0.0000   0.0000   0.0000

          k =-0.5303 0.5303-0.1768 (  3351 PWs)   bands (ev):

    -3.1835  -0.3660   2.5039   3.8027   7.4730  10.3466  11.5373  11.7835

     occupation numbers 
     1.0000   1.0000   1.0000   1.0000   0.0000   0.0000   0.0000   0.0000

          k =-0.4419 0.4419-0.0884 (  3353 PWs)   bands (ev):

    -2.9886  -0.6132   2.0598   4.1116   7.7833  11.2978  11.3543  12.7778

     occupation numbers 
     1.0000   1.0000   1.0000   1.0000   0.0000   0.0000   0.0000   0.0000

          k =-0.3536 0.3536 0.0000 (  3362 PWs)   bands (ev):

    -3.8389   0.5125   2.3010   4.6534   8.3582  10.6665  10.9844  11.9328

     occupation numbers 
     1.0000   1.0000   1.0000   1.0000   0.0000   0.0000   0.0000   0.0000

          k = 0.0000 0.0000 0.5303 (  3370 PWs)   bands (ev):

    -3.4931   0.2366   3.4126   3.4126   6.5875   7.5084  13.8212  13.8212

     occupation numbers 
     1.0000   1.0000   1.0000   1.0000   0.0000   0.0000   0.0000   0.0000

          k =-0.6187 0.6187-0.0884 (  3351 PWs)   bands (ev):

    -2.6194  -0.8240   2.6120   3.3380   6.8664   7.9148  14.0601  14.1058

     occupation numbers 
     1.0000   1.0000   1.0000   1.0000   0.0000   0.0000   0.0000   0.0000

          k =-0.5303 0.5303 0.0000 (  3352 PWs)   bands (ev):

    -2.2010  -1.2056   1.7755   3.5884   7.1672  10.0284  13.2773  13.7931

     occupation numbers 
     1.0000   1.0000   1.0000   1.0000   0.0000   0.0000   0.0000   0.0000

          k = 0.0000 0.0000-0.7071 (  3338 PWs)   bands (ev):

    -1.7857  -1.7857   3.1729   3.1729   6.6880   6.6880  15.8090  15.8090

     occupation numbers 
     1.0000   1.0000   1.0000   1.0000   0.0000   0.0000   0.0000   0.0000

          k = 0.1768 0.0000 0.3536 (  3369 PWs)   bands (ev):

    -4.5333   1.6774   3.3119   4.5546   8.3717   9.7272  10.1255  11.3463

     occupation numbers 
     1.0000   1.0000   1.0000   1.0000   0.0000   0.0000   0.0000   0.0000

          k =-0.4419 0.6187-0.2652 (  3361 PWs)   bands (ev):

    -3.6698   0.1682   2.7083   4.0721   8.7856   9.4465  10.8859  11.7791

     occupation numbers 
     1.0000   1.0000   1.0000   1.0000   0.0000   0.0000   0.0000   0.0000

          k =-0.3536 0.5303-0.1768 (  3358 PWs)   bands (ev):

    -3.0413  -0.7432   2.5757   3.8515   8.9342   9.0752  11.7467  12.9586

     occupation numbers 
     1.0000   1.0000   1.0000   1.0000   0.0000   0.0000   0.0000   0.0000

          k =-0.5303 0.7071-0.1768 (  3352 PWs)   bands (ev):

    -3.3014   0.0226   2.6808   3.2703   7.8860   8.5844  11.5845  13.7724

     occupation numbers 
     1.0000   1.0000   1.0000   1.0000   0.0000   0.0000   0.0000   0.0000

          k =-0.4419 0.6187-0.0884 (  3346 PWs)   bands (ev):

    -2.4545  -0.9197   2.0052   3.0755   8.3220  10.1857  11.1154  13.2425

     occupation numbers 
     1.0000   1.0000   1.0000   1.0000   0.0000   0.0000   0.0000   0.0000

          k =-0.3536 0.5303 0.0000 (  3344 PWs)   bands (ev):

    -2.7960  -0.5635   1.8440   3.4393   8.7876  10.4282  11.0703  12.8575

     occupation numbers 
     1.0000   1.0000   1.0000   1.0000   0.0000   0.0000   0.0000   0.0000

          k = 0.1768 0.0000-0.7071 (  3350 PWs)   bands (ev):

    -1.7133  -1.7133   2.6310   2.6310   7.9156   7.9156  13.6378  13.6378

     occupation numbers 
     1.0000   1.0000   1.0000   1.0000   0.0000   0.0000   0.0000   0.0000

          k = 0.3536 0.0000-0.7071 (  3380 PWs)   bands (ev):

    -1.6341  -1.6341   2.2123   2.2123  10.1900  10.1900  10.8339  10.8339

     occupation numbers 
     1.0000   1.0000   1.0000   1.0000   0.0000   0.0000   0.0000   0.0000

     the Fermi energy is     6.3741 ev

!    total energy              =     -15.76639561 Ry
     estimated scf accuracy    <          5.3E-15 Ry
     smearing contrib. (-TS)   =      -0.00000000 Ry
     internal energy E=F+TS    =     -15.76639561 Ry

     convergence has been achieved in   9 iterations

     Forces acting on atoms (cartesian axes, Ry/au):

     atom    1 type  1   force =    -0.00000000   -0.00000000    0.00000000
     atom    2 type  1   force =     0.00000000    0.00000000   -0.00000000
     The non-local contrib.  to forces
     atom    1 type  1   force =     0.00000000   -0.00000000   -0.00000000
     atom    2 type  1   force =     0.00000000   -0.00000000   -0.00000000
     The ionic contribution  to forces
     atom    1 type  1   force =     0.00000000   -0.00000000   -0.00000000
     atom    2 type  1   force =    -0.00000000    0.00000000    0.00000000
     The local contribution  to forces
     atom    1 type  1   force =    -0.00000000   -0.00000000    0.00000000
     atom    2 type  1   force =     0.00000000    0.00000000   -0.00000000
     The core correction contribution to forces
     atom    1 type  1   force =     0.00000000    0.00000000    0.00000000
     atom    2 type  1   force =     0.00000000    0.00000000    0.00000000
     The Hubbard contrib.    to forces
     atom    1 type  1   force =     0.00000000    0.00000000    0.00000000
     atom    2 type  1   force =     0.00000000    0.00000000    0.00000000
     The SCF correction term to forces
     atom    1 type  1   force =     0.00000000    0.00000000    0.00000000
     atom    2 type  1   force =    -0.00000000   -0.00000000   -0.00000000

     Total force =     0.000000     Total SCF correction =     0.000000


     Computing stress (Cartesian axis) and pressure

          total   stress  (Ry/bohr**3)                   (kbar)     P=       -1.17
  -0.00000793   0.00000000   0.00000000           -1.17        0.00        0.00
   0.00000000  -0.00000793   0.00000000            0.00       -1.17        0.00
   0.00000000   0.00000000  -0.00000793            0.00        0.00       -1.17

     kinetic stress (kbar)   2156.80     -0.00      0.00
                               -0.00   2156.80     -0.00
                                0.00      0.00   2156.80

     local   stress (kbar)  -1343.95     -0.00     -0.00
                               -0.00  -1343.95     -0.00
                               -0.00     -0.00  -1343.95

     nonloc. stress (kbar)   2704.25      0.00      0.00
                                0.00   2704.25     -0.00
                                0.00     -0.00   2704.25

     hartree stress (kbar)    198.85      0.00      0.00
                                0.00    198.85      0.00
                                0.00      0.00    198.85

     exc-cor stress (kbar)   -777.24     -0.00     -0.00
                               -0.00   -777.24      0.00
                               -0.00      0.00   -777.24

     corecor stress (kbar)      0.00      0.00      0.00
                                0.00      0.00      0.00
                                0.00      0.00      0.00

     ewald   stress (kbar)  -2939.88      0.00      0.00
                                0.00  -2939.88     -0.00
                                0.00     -0.00  -2939.88

     hubbard stress (kbar)      0.00      0.00      0.00
                                0.00      0.00      0.00
                                0.00      0.00      0.00

     DFT-D   stress (kbar)      0.00      0.00      0.00
                                0.00      0.00      0.00
                                0.00      0.00      0.00

     XDM     stress (kbar)      0.00      0.00      0.00
                                0.00      0.00      0.00
                                0.00      0.00      0.00

     dft-nl  stress (kbar)      0.00      0.00      0.00
                                0.00      0.00      0.00
                                0.00      0.00      0.00

     TS-vdW  stress (kbar)      0.00      0.00      0.00
                                0.00      0.00      0.00
                                0.00      0.00      0.00

     MDB     stress (kbar)      0.00      0.00      0.00
                                0.00      0.00      0.00
                                0.00      0.00      0.00

     3D-RISM stress (kbar)      0.00      0.00      0.00
                                0.00      0.00      0.00
                                0.00      0.00      0.00


     Wentzcovitch Damped Cell Dynamics Minimization:
     convergence thresholds EPSE = 1.00E-04  EPSF = 1.00E-07

     Entering Dynamics;  it =     1   time =  0.00000 pico-seconds

  new lattice vectors (alat unit) :
   0.707105308   0.707105308   0.000000000
   0.000000000   0.707105308   0.707105308
   0.707105308   0.000000000   0.707105308
  new unit-cell volume =    277.6359 (a.u.)^3
  new positions in cryst coord
Si      -0.000000000   0.000000000   0.000000000
Si       0.250000000   0.250000000   0.250000000
  new positions in cart coord (alat unit)
Si      -0.000000000  -0.000000000   0.000000000
Si       0.353552654   0.353552654   0.353552654

     Ekin =     0.00000000 Ry    T =    0.0 K  Etot =      -15.76639561
     new unit-cell volume =    277.63587 a.u.^3 (    41.14139 Ang^3 )
     density =      2.26716 g/cm^3

CELL_PARAMETERS (angstrom)
   2.739994292   2.739994292   0.000000000
   0.000000000   2.739994292   2.739994292
   2.739994292   0.000000000   2.739994292

ATOMIC_POSITIONS (crystal)
Si           -0.0000000000        0.0000000000        0.0000000000
Si            0.2500000000        0.2500000000        0.2500000000



     Writing config-only to output data dir ./wavefunc/Si.save/
     NEW-OLD atomic charge density approx. for the potential
     extrapolated charge    7.99995, renormalised to    8.00000

     total cpu time spent up to now is        1.1 secs

     Self-consistent Calculation

     iteration #  1     ecut=    80.00 Ry     beta= 0.70
     Davidson diagonalization with overlap

---- Real-time Memory Report at c_bands before calling an iterative solver
           199 MiB given to the printing process from OS
             0 MiB allocation reported by mallinfo(arena+hblkhd)
        143592 MiB available memory on the node where the printing process lives
------------------
     ethr =  1.00E-06,  avg # of iterations =  1.0

     Threshold (ethr) on eigenvalues was too large:
     Diagonalizing with lowered threshold

     Davidson diagonalization with overlap

---- Real-time Memory Report at c_bands before calling an iterative solver
           199 MiB given to the printing process from OS
             0 MiB allocation reported by mallinfo(arena+hblkhd)
        143592 MiB available memory on the node where the printing process lives
------------------
     ethr =  1.97E-13,  avg # of iterations =  2.1

     total cpu time spent up to now is        1.3 secs

     total energy              =     -15.76639562 Ry
     estimated scf accuracy    <          1.5E-11 Ry

     iteration #  2     ecut=    80.00 Ry     beta= 0.70
     Davidson diagonalization with overlap

---- Real-time Memory Report at c_bands before calling an iterative solver
           199 MiB given to the printing process from OS
             0 MiB allocation reported by mallinfo(arena+hblkhd)
        143587 MiB available memory on the node where the printing process lives
------------------
     ethr =  1.87E-13,  avg # of iterations =  2.0

     total cpu time spent up to now is        1.3 secs

     total energy              =     -15.76639562 Ry
     estimated scf accuracy    <          1.1E-11 Ry

     iteration #  3     ecut=    80.00 Ry     beta= 0.70
     Davidson diagonalization with overlap

---- Real-time Memory Report at c_bands before calling an iterative solver
           200 MiB given to the printing process from OS
             0 MiB allocation reported by mallinfo(arena+hblkhd)
        143585 MiB available memory on the node where the printing process lives
------------------
     ethr =  1.37E-13,  avg # of iterations =  1.0

     total cpu time spent up to now is        1.4 secs

     total energy              =     -15.76639562 Ry
     estimated scf accuracy    <          3.1E-12 Ry

     iteration #  4     ecut=    80.00 Ry     beta= 0.70
     Davidson diagonalization with overlap

---- Real-time Memory Report at c_bands before calling an iterative solver
           200 MiB given to the printing process from OS
             0 MiB allocation reported by mallinfo(arena+hblkhd)
        143585 MiB available memory on the node where the printing process lives
------------------
     ethr =  1.00E-13,  avg # of iterations =  1.0

     total cpu time spent up to now is        1.4 secs

     total energy              =     -15.76639562 Ry
     estimated scf accuracy    <          1.1E-13 Ry

     iteration #  5     ecut=    80.00 Ry     beta= 0.70
     Davidson diagonalization with overlap

---- Real-time Memory Report at c_bands before calling an iterative solver
           200 MiB given to the printing process from OS
             0 MiB allocation reported by mallinfo(arena+hblkhd)
        143584 MiB available memory on the node where the printing process lives
------------------
     ethr =  1.00E-13,  avg # of iterations =  1.0

     total cpu time spent up to now is        1.5 secs

     End of self-consistent calculation

          k = 0.0000 0.0000 0.0000 (  3383 PWs)   bands (ev):

    -5.8302   5.9431   5.9431   5.9431   8.4909   8.4909   8.4909   8.9727

     occupation numbers 
     1.0000   1.0000   1.0000   1.0000   0.0000   0.0000   0.0000   0.0000

          k = 0.0884-0.0884 0.0884 (  3374 PWs)   bands (ev):

    -5.6309   4.3522   5.6639   5.6639   8.3507   8.9023   8.9023  10.3977

     occupation numbers 
     1.0000   1.0000   1.0000   1.0000   0.0000   0.0000   0.0000   0.0000

          k = 0.1768-0.1768 0.1768 (  3371 PWs)   bands (ev):

    -5.0501   2.0668   5.2057   5.2057   7.8602   9.4162   9.4162  12.6194

     occupation numbers 
     1.0000   1.0000   1.0000   1.0000   0.0000   0.0000   0.0000   0.0000

          k = 0.2652-0.2652 0.2652 (  3359 PWs)   bands (ev):

    -4.1818   0.0935   4.8858   4.8858   7.4932   9.3806   9.3806  13.7510

     occupation numbers 
     1.0000   1.0000   1.0000   1.0000   0.0000   0.0000   0.0000   0.0000

          k =-0.3536 0.3536-0.3536 (  3354 PWs)   bands (ev):

    -3.5684  -0.8970   4.7761   4.7761   7.3643   9.2781   9.2781  13.6210

     occupation numbers 
     1.0000   1.0000   1.0000   1.0000   0.0000   0.0000   0.0000   0.0000

          k = 0.0000 0.0000 0.1768 (  3371 PWs)   bands (ev):

    -5.5637   4.5802   5.1648   5.1648   7.9501   9.5942   9.5942  10.0823

     occupation numbers 
     1.0000   1.0000   1.0000   1.0000   0.0000   0.0000   0.0000   0.0000

          k = 0.0884-0.0884 0.2652 (  3366 PWs)   bands (ev):

    -5.1064   2.7396   4.6667   4.7241   8.0748   9.5262  10.3435  10.6515

     occupation numbers 
     1.0000   1.0000   1.0000   1.0000   0.0000   0.0000   0.0000   0.0000

          k = 0.1768-0.1768 0.3536 (  3345 PWs)   bands (ev):

    -4.3131   0.7301   4.1433   4.4040   8.1474   9.5041  10.3595  11.3473

     occupation numbers 
     1.0000   1.0000   1.0000   1.0000   0.0000   0.0000   0.0000   0.0000

          k =-0.4419 0.4419-0.2652 (  3351 PWs)   bands (ev):

    -3.4813  -0.6900   3.7093   4.4258   8.0766   9.4055  10.0157  13.2014

     occupation numbers 
     1.0000   1.0000   1.0000   1.0000   0.0000   0.0000   0.0000   0.0000

          k =-0.3536 0.3536-0.1768 (  3353 PWs)   bands (ev):

    -3.7162  -0.3317   3.5363   4.7126   8.2206   9.5273   9.7886  13.7214

     occupation numbers 
     1.0000   1.0000   1.0000   1.0000   0.0000   0.0000   0.0000   0.0000

          k =-0.2652 0.2652-0.0884 (  3372 PWs)   bands (ev):

    -4.6111   1.3723   3.6917   5.1895   8.5604   9.5877   9.7541  12.1038

     occupation numbers 
     1.0000   1.0000   1.0000   1.0000   0.0000   0.0000   0.0000   0.0000

          k =-0.1768 0.1768 0.0000 (  3373 PWs)   bands (ev):

    -5.3028   3.2680   4.3678   5.6565   8.8723   9.0393   9.2499  11.3139

     occupation numbers 
     1.0000   1.0000   1.0000   1.0000   0.0000   0.0000   0.0000   0.0000

          k = 0.0000 0.0000 0.3536 (  3359 PWs)   bands (ev):

    -4.7740   2.4191   4.1115   4.1115   7.0876   9.0558  11.5935  11.5935

     occupation numbers 
     1.0000   1.0000   1.0000   1.0000   0.0000   0.0000   0.0000   0.0000

          k = 0.0884-0.0884 0.4419 (  3364 PWs)   bands (ev):

    -4.0817   1.0315   3.3484   3.8008   7.3049   8.8267  11.8019  12.1082

     occupation numbers 
     1.0000   1.0000   1.0000   1.0000   0.0000   0.0000   0.0000   0.0000

          k =-0.5303 0.5303-0.1768 (  3351 PWs)   bands (ev):

    -3.1834  -0.3659   2.5040   3.8028   7.4730  10.3467  11.5374  11.7836

     occupation numbers 
     1.0000   1.0000   1.0000   1.0000   0.0000   0.0000   0.0000   0.0000

          k =-0.4419 0.4419-0.0884 (  3353 PWs)   bands (ev):

    -2.9885  -0.6132   2.0598   4.1116   7.7834  11.2979  11.3544  12.7778

     occupation numbers 
     1.0000   1.0000   1.0000   1.0000   0.0000   0.0000   0.0000   0.0000

          k =-0.3536 0.3536 0.0000 (  3362 PWs)   bands (ev):

    -3.8388   0.5125   2.3011   4.6534   8.3582  10.6666  10.9845  11.9329

     occupation numbers 
     1.0000   1.0000   1.0000   1.0000   0.0000   0.0000   0.0000   0.0000

          k = 0.0000 0.0000 0.5303 (  3370 PWs)   bands (ev):

    -3.4930   0.2366   3.4127   3.4127   6.5876   7.5085  13.8213  13.8213

     occupation numbers 
     1.0000   1.0000   1.0000   1.0000   0.0000   0.0000   0.0000   0.0000

          k =-0.6187 0.6187-0.0884 (  3351 PWs)   bands (ev):

    -2.6193  -0.8240   2.6120   3.3380   6.8664   7.9148  14.0602  14.1059

     occupation numbers 
     1.0000   1.0000   1.0000   1.0000   0.0000   0.0000   0.0000   0.0000

          k =-0.5303 0.5303 0.0000 (  3352 PWs)   bands (ev):

    -2.2010  -1.2056   1.7756   3.5884   7.1672  10.0284  13.2774  13.7928

     occupation numbers 
     1.0000   1.0000   1.0000   1.0000   0.0000   0.0000   0.0000   0.0000

          k = 0.0000 0.0000-0.7071 (  3338 PWs)   bands (ev):

    -1.7857  -1.7857   3.1729   3.1729   6.6881   6.6881  15.8091  15.8091

     occupation numbers 
     1.0000   1.0000   1.0000   1.0000   0.0000   0.0000   0.0000   0.0000

          k = 0.1768 0.0000 0.3536 (  3369 PWs)   bands (ev):

    -4.5333   1.6775   3.3119   4.5547   8.3717   9.7273  10.1256  11.3464

     occupation numbers 
     1.0000   1.0000   1.0000   1.0000   0.0000   0.0000   0.0000   0.0000

          k =-0.4419 0.6187-0.2652 (  3361 PWs)   bands (ev):

    -3.6697   0.1683   2.7083   4.0722   8.7857   9.4466  10.8859  11.7792

     occupation numbers 
     1.0000   1.0000   1.0000   1.0000   0.0000   0.0000   0.0000   0.0000

          k =-0.3536 0.5303-0.1768 (  3358 PWs)   bands (ev):

    -3.0413  -0.7431   2.5757   3.8515   8.9342   9.0753  11.7468  12.9587

     occupation numbers 
     1.0000   1.0000   1.0000   1.0000   0.0000   0.0000   0.0000   0.0000

          k =-0.5303 0.7071-0.1768 (  3352 PWs)   bands (ev):

    -3.3014   0.0227   2.6808   3.2704   7.8861   8.5844  11.5846  13.7725

     occupation numbers 
     1.0000   1.0000   1.0000   1.0000   0.0000   0.0000   0.0000   0.0000

          k =-0.4419 0.6187-0.0884 (  3346 PWs)   bands (ev):

    -2.4544  -0.9196   2.0052   3.0756   8.3220  10.1858  11.1155  13.2426

     occupation numbers 
     1.0000   1.0000   1.0000   1.0000   0.0000   0.0000   0.0000   0.0000

          k =-0.3536 0.5303 0.0000 (  3344 PWs)   bands (ev):

    -2.7959  -0.5634   1.8440   3.4393   8.7877  10.4282  11.0704  12.8576

     occupation numbers 
     1.0000   1.0000   1.0000   1.0000   0.0000   0.0000   0.0000   0.0000

          k = 0.1768 0.0000-0.7071 (  3350 PWs)   bands (ev):

    -1.7133  -1.7133   2.6310   2.6310   7.9157   7.9157  13.6379  13.6379

     occupation numbers 
     1.0000   1.0000   1.0000   1.0000   0.0000   0.0000   0.0000   0.0000

          k = 0.3536 0.0000-0.7071 (  3380 PWs)   bands (ev):

    -1.6340  -1.6340   2.2124   2.2124  10.1901  10.1901  10.8339  10.8339

     occupation numbers 
     1.0000   1.0000   1.0000   1.0000   0.0000   0.0000   0.0000   0.0000

     the Fermi energy is     6.3742 ev

!    total energy              =     -15.76639562 Ry
     estimated scf accuracy    <          5.7E-15 Ry
     smearing contrib. (-TS)   =      -0.00000000 Ry
     internal energy E=F+TS    =     -15.76639562 Ry

     convergence has been achieved in   5 iterations

     Forces acting on atoms (cartesian axes, Ry/au):

     atom    1 type  1   force =     0.00000000    0.00000000    0.00000000
     atom    2 type  1   force =     0.00000000    0.00000000    0.00000000
     The non-local contrib.  to forces
     atom    1 type  1   force =    -0.00000000    0.00000000    0.00000000
     atom    2 type  1   force =    -0.00000000    0.00000000    0.00000000
     The ionic contribution  to forces
     atom    1 type  1   force =    -0.00000000    0.00000000   -0.00000000
     atom    2 type  1   force =     0.00000000   -0.00000000    0.00000000
     The local contribution  to forces
     atom    1 type  1   force =     0.00000000   -0.00000000    0.00000000
     atom    2 type  1   force =    -0.00000000    0.00000000   -0.00000000
     The core correction contribution to forces
     atom    1 type  1   force =     0.00000000    0.00000000    0.00000000
     atom    2 type  1   force =     0.00000000    0.00000000    0.00000000
     The Hubbard contrib.    to forces
     atom    1 type  1   force =     0.00000000    0.00000000    0.00000000
     atom    2 type  1   force =     0.00000000    0.00000000    0.00000000
     The SCF correction term to forces
     atom    1 type  1   force =    -0.00000000    0.00000000   -0.00000000
     atom    2 type  1   force =     0.00000000   -0.00000000    0.00000000

     Total force =     0.000000     Total SCF correction =     0.000000


     Computing stress (Cartesian axis) and pressure

          total   stress  (Ry/bohr**3)                   (kbar)     P=       -1.16
  -0.00000789  -0.00000000  -0.00000000           -1.16       -0.00       -0.00
  -0.00000000  -0.00000789  -0.00000000           -0.00       -1.16       -0.00
  -0.00000000  -0.00000000  -0.00000789           -0.00       -0.00       -1.16

     kinetic stress (kbar)   2156.82     -0.00      0.00
                               -0.00   2156.82      0.00
                                0.00      0.00   2156.82

     local   stress (kbar)  -1343.96      0.00     -0.00
                                0.00  -1343.96      0.00
                               -0.00      0.00  -1343.96

     nonloc. stress (kbar)   2704.27      0.00      0.00
                                0.00   2704.27      0.00
                                0.00      0.00   2704.27

     hartree stress (kbar)    198.85      0.00     -0.00
                                0.00    198.85      0.00
                               -0.00      0.00    198.85

     exc-cor stress (kbar)   -777.24     -0.00     -0.00
                               -0.00   -777.24      0.00
                               -0.00      0.00   -777.24

     corecor stress (kbar)      0.00      0.00      0.00
                                0.00      0.00      0.00
                                0.00      0.00      0.00

     ewald   stress (kbar)  -2939.90     -0.00      0.00
                               -0.00  -2939.90     -0.00
                                0.00     -0.00  -2939.90

     hubbard stress (kbar)      0.00      0.00      0.00
                                0.00      0.00      0.00
                                0.00      0.00      0.00

     DFT-D   stress (kbar)      0.00      0.00      0.00
                                0.00      0.00      0.00
                                0.00      0.00      0.00

     XDM     stress (kbar)      0.00      0.00      0.00
                                0.00      0.00      0.00
                                0.00      0.00      0.00

     dft-nl  stress (kbar)      0.00      0.00      0.00
                                0.00      0.00      0.00
                                0.00      0.00      0.00

     TS-vdW  stress (kbar)      0.00      0.00      0.00
                                0.00      0.00      0.00
                                0.00      0.00      0.00

     MDB     stress (kbar)      0.00      0.00      0.00
                                0.00      0.00      0.00
                                0.00      0.00      0.00

     3D-RISM stress (kbar)      0.00      0.00      0.00
                                0.00      0.00      0.00
                                0.00      0.00      0.00


     Entering Dynamics;  it =     2   time =  0.00484 pico-seconds

  new lattice vectors (alat unit) :
   0.707101636   0.707101636   0.000000000
   0.000000000   0.707101636   0.707101636
   0.707101636   0.000000000   0.707101636
  new unit-cell volume =    277.6315 (a.u.)^3
  new positions in cryst coord
Si      -0.000000000   0.000000000   0.000000000
Si       0.250000000   0.250000000   0.250000000
  new positions in cart coord (alat unit)
Si      -0.000000000  -0.000000000   0.000000000
Si       0.353550818   0.353550818   0.353550818

     Ekin =     0.00000001 Ry    T =    0.0 K  Etot =      -15.76639561
     new unit-cell volume =    277.63154 a.u.^3 (    41.14075 Ang^3 )
     density =      2.26720 g/cm^3

CELL_PARAMETERS (angstrom)
   2.739980063   2.739980063   0.000000000
   0.000000000   2.739980063   2.739980063
   2.739980063   0.000000000   2.739980063

ATOMIC_POSITIONS (crystal)
Si           -0.0000000000        0.0000000000        0.0000000000
Si            0.2500000000        0.2500000000        0.2500000000



     Writing config-only to output data dir ./wavefunc/Si.save/
     NEW-OLD atomic charge density approx. for the potential
     extrapolated charge    7.99988, renormalised to    8.00000

     total cpu time spent up to now is        1.6 secs

     Self-consistent Calculation

     iteration #  1     ecut=    80.00 Ry     beta= 0.70
     Davidson diagonalization with overlap

---- Real-time Memory Report at c_bands before calling an iterative solver
           220 MiB given to the printing process from OS
             0 MiB allocation reported by mallinfo(arena+hblkhd)
        143269 MiB available memory on the node where the printing process lives
------------------
     ethr =  1.00E-06,  avg # of iterations =  1.0

     Threshold (ethr) on eigenvalues was too large:
     Diagonalizing with lowered threshold

     Davidson diagonalization with overlap

---- Real-time Memory Report at c_bands before calling an iterative solver
           220 MiB given to the printing process from OS
             0 MiB allocation reported by mallinfo(arena+hblkhd)
        143269 MiB available memory on the node where the printing process lives
------------------
     ethr =  1.18E-12,  avg # of iterations =  2.2

     total cpu time spent up to now is        1.8 secs

     total energy              =     -15.76639565 Ry
     estimated scf accuracy    <          9.2E-11 Ry

     iteration #  2     ecut=    80.00 Ry     beta= 0.70
     Davidson diagonalization with overlap

---- Real-time Memory Report at c_bands before calling an iterative solver
           220 MiB given to the printing process from OS
             0 MiB allocation reported by mallinfo(arena+hblkhd)
        143268 MiB available memory on the node where the printing process lives
------------------
     ethr =  1.15E-12,  avg # of iterations =  2.0

     total cpu time spent up to now is        1.8 secs

     total energy              =     -15.76639565 Ry
     estimated scf accuracy    <          6.9E-11 Ry

     iteration #  3     ecut=    80.00 Ry     beta= 0.70
     Davidson diagonalization with overlap

---- Real-time Memory Report at c_bands before calling an iterative solver
           220 MiB given to the printing process from OS
             0 MiB allocation reported by mallinfo(arena+hblkhd)
        143268 MiB available memory on the node where the printing process lives
------------------
     ethr =  8.59E-13,  avg # of iterations =  1.0

     total cpu time spent up to now is        1.9 secs

     total energy              =     -15.76639565 Ry
     estimated scf accuracy    <          2.0E-11 Ry

     iteration #  4     ecut=    80.00 Ry     beta= 0.70
     Davidson diagonalization with overlap

---- Real-time Memory Report at c_bands before calling an iterative solver
           220 MiB given to the printing process from OS
             0 MiB allocation reported by mallinfo(arena+hblkhd)
        143266 MiB available memory on the node where the printing process lives
------------------
     ethr =  2.47E-13,  avg # of iterations =  1.2

     total cpu time spent up to now is        2.0 secs

     total energy              =     -15.76639565 Ry
     estimated scf accuracy    <          6.8E-13 Ry

     iteration #  5     ecut=    80.00 Ry     beta= 0.70
     Davidson diagonalization with overlap

---- Real-time Memory Report at c_bands before calling an iterative solver
           220 MiB given to the printing process from OS
             0 MiB allocation reported by mallinfo(arena+hblkhd)
        143266 MiB available memory on the node where the printing process lives
------------------
     ethr =  1.00E-13,  avg # of iterations =  1.0

     total cpu time spent up to now is        2.0 secs

     total energy              =     -15.76639565 Ry
     estimated scf accuracy    <          4.2E-14 Ry

     iteration #  6     ecut=    80.00 Ry     beta= 0.70
     Davidson diagonalization with overlap

---- Real-time Memory Report at c_bands before calling an iterative solver
           221 MiB given to the printing process from OS
             0 MiB allocation reported by mallinfo(arena+hblkhd)
        143266 MiB available memory on the node where the printing process lives
------------------
     ethr =  1.00E-13,  avg # of iterations =  1.0

     total cpu time spent up to now is        2.1 secs

     End of self-consistent calculation

          k = 0.0000 0.0000 0.0000 (  3383 PWs)   bands (ev):

    -5.8301   5.9433   5.9433   5.9433   8.4911   8.4911   8.4911   8.9730

     occupation numbers 
     1.0000   1.0000   1.0000   1.0000   0.0000   0.0000   0.0000   0.0000

          k = 0.0884-0.0884 0.0884 (  3374 PWs)   bands (ev):

    -5.6309   4.3524   5.6640   5.6640   8.3509   8.9025   8.9025  10.3980

     occupation numbers 
     1.0000   1.0000   1.0000   1.0000   0.0000   0.0000   0.0000   0.0000

          k = 0.1768-0.1768 0.1768 (  3371 PWs)   bands (ev):

    -5.0501   2.0669   5.2059   5.2059   7.8604   9.4164   9.4164  12.6196

     occupation numbers 
     1.0000   1.0000   1.0000   1.0000   0.0000   0.0000   0.0000   0.0000

          k = 0.2652-0.2652 0.2652 (  3359 PWs)   bands (ev):

    -4.1817   0.0936   4.8860   4.8860   7.4935   9.3808   9.3808  13.7512

     occupation numbers 
     1.0000   1.0000   1.0000   1.0000   0.0000   0.0000   0.0000   0.0000

          k =-0.3536 0.3536-0.3536 (  3354 PWs)   bands (ev):

    -3.5683  -0.8969   4.7763   4.7763   7.3645   9.2783   9.2783  13.6212

     occupation numbers 
     1.0000   1.0000   1.0000   1.0000   0.0000   0.0000   0.0000   0.0000

          k = 0.0000 0.0000 0.1768 (  3371 PWs)   bands (ev):

    -5.5637   4.5804   5.1649   5.1649   7.9503   9.5944   9.5944  10.0825

     occupation numbers 
     1.0000   1.0000   1.0000   1.0000   0.0000   0.0000   0.0000   0.0000

          k = 0.0884-0.0884 0.2652 (  3366 PWs)   bands (ev):

    -5.1064   2.7397   4.6669   4.7242   8.0749   9.5265  10.3437  10.6517

     occupation numbers 
     1.0000   1.0000   1.0000   1.0000   0.0000   0.0000   0.0000   0.0000

          k = 0.1768-0.1768 0.3536 (  3345 PWs)   bands (ev):

    -4.3130   0.7303   4.1434   4.4041   8.1476   9.5043  10.3597  11.3475

     occupation numbers 
     1.0000   1.0000   1.0000   1.0000   0.0000   0.0000   0.0000   0.0000

          k =-0.4419 0.4419-0.2652 (  3351 PWs)   bands (ev):

    -3.4812  -0.6899   3.7094   4.4259   8.0768   9.4056  10.0158  13.2016

     occupation numbers 
     1.0000   1.0000   1.0000   1.0000   0.0000   0.0000   0.0000   0.0000

          k =-0.3536 0.3536-0.1768 (  3353 PWs)   bands (ev):

    -3.7162  -0.3316   3.5364   4.7127   8.2208   9.5275   9.7888  13.7216

     occupation numbers 
     1.0000   1.0000   1.0000   1.0000   0.0000   0.0000   0.0000   0.0000

          k =-0.2652 0.2652-0.0884 (  3372 PWs)   bands (ev):

    -4.6110   1.3724   3.6918   5.1896   8.5606   9.5879   9.7543  12.1041

     occupation numbers 
     1.0000   1.0000   1.0000   1.0000   0.0000   0.0000   0.0000   0.0000

          k =-0.1768 0.1768 0.0000 (  3373 PWs)   bands (ev):

    -5.3028   3.2682   4.3680   5.6566   8.8725   9.0395   9.2501  11.3142

     occupation numbers 
     1.0000   1.0000   1.0000   1.0000   0.0000   0.0000   0.0000   0.0000

          k = 0.0000 0.0000 0.3536 (  3359 PWs)   bands (ev):

    -4.7739   2.4193   4.1116   4.1116   7.0878   9.0560  11.5937  11.5937

     occupation numbers 
     1.0000   1.0000   1.0000   1.0000   0.0000   0.0000   0.0000   0.0000

          k = 0.0884-0.0884 0.4419 (  3364 PWs)   bands (ev):

    -4.0817   1.0316   3.3486   3.8009   7.3050   8.8268  11.8021  12.1084

     occupation numbers 
     1.0000   1.0000   1.0000   1.0000   0.0000   0.0000   0.0000   0.0000

          k =-0.5303 0.5303-0.1768 (  3351 PWs)   bands (ev):

    -3.1834  -0.3658   2.5041   3.8029   7.4732  10.3468  11.5377  11.7838

     occupation numbers 
     1.0000   1.0000   1.0000   1.0000   0.0000   0.0000   0.0000   0.0000

          k =-0.4419 0.4419-0.0884 (  3353 PWs)   bands (ev):

    -2.9884  -0.6130   2.0599   4.1118   7.7835  11.2981  11.3546  12.7780

     occupation numbers 
     1.0000   1.0000   1.0000   1.0000   0.0000   0.0000   0.0000   0.0000

          k =-0.3536 0.3536 0.0000 (  3362 PWs)   bands (ev):

    -3.8388   0.5127   2.3012   4.6535   8.3584  10.6668  10.9847  11.9331

     occupation numbers 
     1.0000   1.0000   1.0000   1.0000   0.0000   0.0000   0.0000   0.0000

          k = 0.0000 0.0000 0.5303 (  3370 PWs)   bands (ev):

    -3.4929   0.2368   3.4128   3.4128   6.5877   7.5086  13.8215  13.8215

     occupation numbers 
     1.0000   1.0000   1.0000   1.0000   0.0000   0.0000   0.0000   0.0000

          k =-0.6187 0.6187-0.0884 (  3351 PWs)   bands (ev):

    -2.6192  -0.8239   2.6121   3.3381   6.8665   7.9150  14.0604  14.1062

     occupation numbers 
     1.0000   1.0000   1.0000   1.0000   0.0000   0.0000   0.0000   0.0000

          k =-0.5303 0.5303 0.0000 (  3352 PWs)   bands (ev):

    -2.2008  -1.2055   1.7757   3.5886   7.1674  10.0286  13.2776  13.7926

     occupation numbers 
     1.0000   1.0000   1.0000   1.0000   0.0000   0.0000   0.0000   0.0000

          k = 0.0000 0.0000-0.7071 (  3338 PWs)   bands (ev):

    -1.7856  -1.7856   3.1730   3.1730   6.6882   6.6882  15.8094  15.8094

     occupation numbers 
     1.0000   1.0000   1.0000   1.0000   0.0000   0.0000   0.0000   0.0000

          k = 0.1768 0.0000 0.3536 (  3369 PWs)   bands (ev):

    -4.5332   1.6776   3.3120   4.5548   8.3719   9.7275  10.1257  11.3466

     occupation numbers 
     1.0000   1.0000   1.0000   1.0000   0.0000   0.0000   0.0000   0.0000

          k =-0.4419 0.6187-0.2652 (  3361 PWs)   bands (ev):

    -3.6696   0.1684   2.7084   4.0723   8.7859   9.4468  10.8861  11.7794

     occupation numbers 
     1.0000   1.0000   1.0000   1.0000   0.0000   0.0000   0.0000   0.0000

          k =-0.3536 0.5303-0.1768 (  3358 PWs)   bands (ev):

    -3.0412  -0.7430   2.5759   3.8516   8.9344   9.0754  11.7470  12.9589

     occupation numbers 
     1.0000   1.0000   1.0000   1.0000   0.0000   0.0000   0.0000   0.0000

          k =-0.5303 0.7071-0.1768 (  3352 PWs)   bands (ev):

    -3.3013   0.0228   2.6810   3.2705   7.8862   8.5846  11.5848  13.7727

     occupation numbers 
     1.0000   1.0000   1.0000   1.0000   0.0000   0.0000   0.0000   0.0000

          k =-0.4419 0.6187-0.0884 (  3346 PWs)   bands (ev):

[...]

ATOMIC_POSITIONS (crystal)
Si           -0.0000000000        0.0000000000        0.0000000000
Si            0.2500000000        0.2500000000        0.2500000000



     Writing config-only to output data dir ./wavefunc/Si.save/
     NEW-OLD atomic charge density approx. for the potential
     extrapolated charge    7.99912, renormalised to    8.00000

     total cpu time spent up to now is       10.8 secs

     Self-consistent Calculation

     iteration #  1     ecut=    80.00 Ry     beta= 0.70
     Davidson diagonalization with overlap

---- Real-time Memory Report at c_bands before calling an iterative solver
           226 MiB given to the printing process from OS
             0 MiB allocation reported by mallinfo(arena+hblkhd)
        143252 MiB available memory on the node where the printing process lives
------------------
     ethr =  1.00E-06,  avg # of iterations =  1.0

     Threshold (ethr) on eigenvalues was too large:
     Diagonalizing with lowered threshold

     Davidson diagonalization with overlap

---- Real-time Memory Report at c_bands before calling an iterative solver
           226 MiB given to the printing process from OS
             0 MiB allocation reported by mallinfo(arena+hblkhd)
        143252 MiB available memory on the node where the printing process lives
------------------
     ethr =  6.11E-11,  avg # of iterations =  2.3

     total cpu time spent up to now is       10.9 secs

     total energy              =     -15.76639706 Ry
     estimated scf accuracy    <          4.7E-09 Ry

     iteration #  2     ecut=    80.00 Ry     beta= 0.70
     Davidson diagonalization with overlap

---- Real-time Memory Report at c_bands before calling an iterative solver
           226 MiB given to the printing process from OS
             0 MiB allocation reported by mallinfo(arena+hblkhd)
        143252 MiB available memory on the node where the printing process lives
------------------
     ethr =  5.91E-11,  avg # of iterations =  2.1

     total cpu time spent up to now is       11.0 secs

     total energy              =     -15.76639707 Ry
     estimated scf accuracy    <          3.5E-09 Ry

     iteration #  3     ecut=    80.00 Ry     beta= 0.70
     Davidson diagonalization with overlap

---- Real-time Memory Report at c_bands before calling an iterative solver
           226 MiB given to the printing process from OS
             0 MiB allocation reported by mallinfo(arena+hblkhd)
        143252 MiB available memory on the node where the printing process lives
------------------
     ethr =  4.41E-11,  avg # of iterations =  1.0

     total cpu time spent up to now is       11.0 secs

     total energy              =     -15.76639707 Ry
     estimated scf accuracy    <          1.0E-09 Ry

     iteration #  4     ecut=    80.00 Ry     beta= 0.70
     Davidson diagonalization with overlap

---- Real-time Memory Report at c_bands before calling an iterative solver
           226 MiB given to the printing process from OS
             0 MiB allocation reported by mallinfo(arena+hblkhd)
        143252 MiB available memory on the node where the printing process lives
------------------
     ethr =  1.26E-11,  avg # of iterations =  1.1

     total cpu time spent up to now is       11.1 secs

     total energy              =     -15.76639707 Ry
     estimated scf accuracy    <          3.0E-11 Ry

     iteration #  5     ecut=    80.00 Ry     beta= 0.70
     Davidson diagonalization with overlap

---- Real-time Memory Report at c_bands before calling an iterative solver
           226 MiB given to the printing process from OS
             0 MiB allocation reported by mallinfo(arena+hblkhd)
        143252 MiB available memory on the node where the printing process lives
------------------
     ethr =  3.74E-13,  avg # of iterations =  2.0

     total cpu time spent up to now is       11.1 secs

     total energy              =     -15.76639707 Ry
     estimated scf accuracy    <          2.5E-12 Ry

     iteration #  6     ecut=    80.00 Ry     beta= 0.70
     Davidson diagonalization with overlap

---- Real-time Memory Report at c_bands before calling an iterative solver
           226 MiB given to the printing process from OS
             0 MiB allocation reported by mallinfo(arena+hblkhd)
        143252 MiB available memory on the node where the printing process lives
------------------
     ethr =  1.00E-13,  avg # of iterations =  1.0

     total cpu time spent up to now is       11.2 secs

     End of self-consistent calculation

          k = 0.0000 0.0000 0.0000 (  3383 PWs)   bands (ev):

    -5.8258   5.9560   5.9560   5.9560   8.5044   8.5044   8.5044   8.9997

     occupation numbers 
     1.0000   1.0000   1.0000   1.0000   0.0000   0.0000   0.0000   0.0000

          k = 0.0884-0.0884 0.0884 (  3374 PWs)   bands (ev):

    -5.6263   4.3649   5.6764   5.6764   8.3676   8.9163   8.9163  10.4211

     occupation numbers 
     1.0000   1.0000   1.0000   1.0000   0.0000   0.0000   0.0000   0.0000

          k = 0.1769-0.1769 0.1769 (  3371 PWs)   bands (ev):

    -5.0448   2.0775   5.2178   5.2178   7.8775   9.4302   9.4302  12.6425

     occupation numbers 
     1.0000   1.0000   1.0000   1.0000   0.0000   0.0000   0.0000   0.0000

          k = 0.2653-0.2653 0.2653 (  3359 PWs)   bands (ev):

    -4.1753   0.1021   4.8977   4.8977   7.5105   9.3935   9.3935  13.7669

     occupation numbers 
     1.0000   1.0000   1.0000   1.0000   0.0000   0.0000   0.0000   0.0000

          k =-0.3537 0.3537-0.3537 (  3354 PWs)   bands (ev):

    -3.5608  -0.8898   4.7879   4.7879   7.3816   9.2906   9.2906  13.6357

     occupation numbers 
     1.0000   1.0000   1.0000   1.0000   0.0000   0.0000   0.0000   0.0000

          k = 0.0000 0.0000 0.1769 (  3371 PWs)   bands (ev):

    -5.5590   4.5944   5.1766   5.1766   7.9630   9.6091   9.6091  10.1062

     occupation numbers 
     1.0000   1.0000   1.0000   1.0000   0.0000   0.0000   0.0000   0.0000

          k = 0.0884-0.0884 0.2653 (  3366 PWs)   bands (ev):

    -5.1012   2.7516   4.6780   4.7360   8.0880   9.5444  10.3589  10.6654

     occupation numbers 
     1.0000   1.0000   1.0000   1.0000   0.0000   0.0000   0.0000   0.0000

          k = 0.1769-0.1769 0.3537 (  3345 PWs)   bands (ev):

    -4.3069   0.7399   4.1548   4.4151   8.1617   9.5200  10.3739  11.3619

     occupation numbers 
     1.0000   1.0000   1.0000   1.0000   0.0000   0.0000   0.0000   0.0000

          k =-0.4421 0.4421-0.2653 (  3351 PWs)   bands (ev):

    -3.4738  -0.6821   3.7203   4.4370   8.0916   9.4199  10.0291  13.2183

     occupation numbers 
     1.0000   1.0000   1.0000   1.0000   0.0000   0.0000   0.0000   0.0000

          k =-0.3537 0.3537-0.1769 (  3353 PWs)   bands (ev):

    -3.7092  -0.3233   3.5469   4.7243   8.2366   9.5411   9.8019  13.7398

     occupation numbers 
     1.0000   1.0000   1.0000   1.0000   0.0000   0.0000   0.0000   0.0000

          k =-0.2653 0.2653-0.0884 (  3372 PWs)   bands (ev):

    -4.6053   1.3829   3.7021   5.2017   8.5773   9.6017   9.7683  12.1222

     occupation numbers 
     1.0000   1.0000   1.0000   1.0000   0.0000   0.0000   0.0000   0.0000

          k =-0.1769 0.1769 0.0000 (  3373 PWs)   bands (ev):

    -5.2979   3.2806   4.3785   5.6692   8.8900   9.0533   9.2645  11.3341

     occupation numbers 
     1.0000   1.0000   1.0000   1.0000   0.0000   0.0000   0.0000   0.0000

          k = 0.0000 0.0000 0.3537 (  3359 PWs)   bands (ev):

    -4.7684   2.4323   4.1221   4.1221   7.0994   9.0688  11.6105  11.6105

     occupation numbers 
     1.0000   1.0000   1.0000   1.0000   0.0000   0.0000   0.0000   0.0000

          k = 0.0884-0.0884 0.4421 (  3364 PWs)   bands (ev):

    -4.0754   1.0431   3.3582   3.8111   7.3167   8.8393  11.8202  12.1249

     occupation numbers 
     1.0000   1.0000   1.0000   1.0000   0.0000   0.0000   0.0000   0.0000

          k =-0.5306 0.5306-0.1769 (  3351 PWs)   bands (ev):

    -3.1758  -0.3563   2.5128   3.8132   7.4848  10.3607  11.5563  11.7991

     occupation numbers 
     1.0000   1.0000   1.0000   1.0000   0.0000   0.0000   0.0000   0.0000

          k =-0.4421 0.4421-0.0884 (  3353 PWs)   bands (ev):

    -2.9805  -0.6040   2.0680   4.1224   7.7958  11.3146  11.3697  12.7952

     occupation numbers 
     1.0000   1.0000   1.0000   1.0000   0.0000   0.0000   0.0000   0.0000

          k =-0.3537 0.3537 0.0000 (  3362 PWs)   bands (ev):

    -3.8321   0.5233   2.3092   4.6649   8.3721  10.6821  11.0003  11.9523

     occupation numbers 
     1.0000   1.0000   1.0000   1.0000   0.0000   0.0000   0.0000   0.0000

          k = 0.0000 0.0000 0.5306 (  3370 PWs)   bands (ev):

    -3.4860   0.2478   3.4226   3.4226   6.5985   7.5194  13.8404  13.8404

     occupation numbers 
     1.0000   1.0000   1.0000   1.0000   0.0000   0.0000   0.0000   0.0000

          k =-0.6190 0.6190-0.0884 (  3351 PWs)   bands (ev):

    -2.6112  -0.8139   2.6205   3.3479   6.8773   7.9268  14.0787  14.1263

     occupation numbers 
     1.0000   1.0000   1.0000   1.0000   0.0000   0.0000   0.0000   0.0000

          k =-0.5306 0.5306 0.0000 (  3352 PWs)   bands (ev):

    -2.1920  -1.1962   1.7827   3.5986   7.1785  10.0424  13.2957  13.8095

     occupation numbers 
     1.0000   1.0000   1.0000   1.0000   0.0000   0.0000   0.0000   0.0000

          k = 0.0000 0.0000-0.7074 (  3338 PWs)   bands (ev):

    -1.7767  -1.7767   3.1826   3.1826   6.6986   6.6986  15.8327  15.8327

     occupation numbers 
     1.0000   1.0000   1.0000   1.0000   0.0000   0.0000   0.0000   0.0000

          k = 0.1769-0.0000 0.3537 (  3369 PWs)   bands (ev):

    -4.5274   1.6894   3.3214   4.5661   8.3850   9.7451  10.1379  11.3630

     occupation numbers 
     1.0000   1.0000   1.0000   1.0000   0.0000   0.0000   0.0000   0.0000

          k =-0.4421 0.6190-0.2653 (  3361 PWs)   bands (ev):

    -3.6627   0.1783   2.7175   4.0827   8.7996   9.4610  10.9014  11.7956

     occupation numbers 
     1.0000   1.0000   1.0000   1.0000   0.0000   0.0000   0.0000   0.0000

          k =-0.3537 0.5306-0.1769 (  3358 PWs)   bands (ev):

    -3.0332  -0.7347   2.5851   3.8617   8.9499   9.0874  11.7637  12.9745

     occupation numbers 
     1.0000   1.0000   1.0000   1.0000   0.0000   0.0000   0.0000   0.0000

          k =-0.5306 0.7074-0.1769 (  3352 PWs)   bands (ev):

    -3.2941   0.0336   2.6895   3.2797   7.8986   8.5967  11.6016  13.7915

     occupation numbers 
     1.0000   1.0000   1.0000   1.0000   0.0000   0.0000   0.0000   0.0000

          k =-0.4421 0.6190-0.0884 (  3346 PWs)   bands (ev):

    -2.4459  -0.9099   2.0128   3.0847   8.3347  10.1994  11.1323  13.2609

     occupation numbers 
     1.0000   1.0000   1.0000   1.0000   0.0000   0.0000   0.0000   0.0000

          k =-0.3537 0.5306 0.0000 (  3344 PWs)   bands (ev):

    -2.7878  -0.5533   1.8514   3.4489   8.8010  10.4430  11.0863  12.8745

     occupation numbers 
     1.0000   1.0000   1.0000   1.0000   0.0000   0.0000   0.0000   0.0000

          k = 0.1769 0.0000-0.7074 (  3350 PWs)   bands (ev):

    -1.7041  -1.7041   2.6396   2.6396   7.9278   7.9278  13.6566  13.6566

     occupation numbers 
     1.0000   1.0000   1.0000   1.0000   0.0000   0.0000   0.0000   0.0000

          k = 0.3537-0.0000-0.7074 (  3380 PWs)   bands (ev):

    -1.6246  -1.6246   2.2201   2.2201  10.2029  10.2029  10.8513  10.8513

     occupation numbers 
     1.0000   1.0000   1.0000   1.0000   0.0000   0.0000   0.0000   0.0000

     the Fermi energy is     6.3894 ev

!    total energy              =     -15.76639707 Ry
     estimated scf accuracy    <          7.8E-15 Ry
     smearing contrib. (-TS)   =      -0.00000000 Ry
     internal energy E=F+TS    =     -15.76639707 Ry

     convergence has been achieved in   6 iterations

     Forces acting on atoms (cartesian axes, Ry/au):

     atom    1 type  1   force =     0.00000000   -0.00000000   -0.00000000
     atom    2 type  1   force =    -0.00000000    0.00000000    0.00000000
     The non-local contrib.  to forces
     atom    1 type  1   force =    -0.00000000    0.00000000   -0.00000000
     atom    2 type  1   force =     0.00000000   -0.00000000   -0.00000000
     The ionic contribution  to forces
     atom    1 type  1   force =    -0.00000000   -0.00000000   -0.00000000
     atom    2 type  1   force =     0.00000000    0.00000000    0.00000000
     The local contribution  to forces
     atom    1 type  1   force =    -0.00000000   -0.00000000   -0.00000000
     atom    2 type  1   force =     0.00000000    0.00000000   -0.00000000
     The core correction contribution to forces
     atom    1 type  1   force =     0.00000000    0.00000000    0.00000000
     atom    2 type  1   force =     0.00000000    0.00000000    0.00000000
     The Hubbard contrib.    to forces
     atom    1 type  1   force =     0.00000000    0.00000000    0.00000000
     atom    2 type  1   force =     0.00000000    0.00000000    0.00000000
     The SCF correction term to forces
     atom    1 type  1   force =    -0.00000000   -0.00000000   -0.00000000
     atom    2 type  1   force =     0.00000000    0.00000000    0.00000000

     Total force =     0.000000     Total SCF correction =     0.000000


     Computing stress (Cartesian axis) and pressure

          total   stress  (Ry/bohr**3)                   (kbar)     P=       -0.06
  -0.00000037   0.00000000   0.00000000           -0.06        0.00        0.00
   0.00000000  -0.00000037   0.00000000            0.00       -0.06        0.00
   0.00000000  -0.00000000  -0.00000037            0.00       -0.00       -0.06

     kinetic stress (kbar)   2160.66     -0.00     -0.00
                               -0.00   2160.66     -0.00
                               -0.00     -0.00   2160.66

     local   stress (kbar)  -1344.94     -0.00     -0.00
                               -0.00  -1344.94     -0.00
                               -0.00     -0.00  -1344.94

     nonloc. stress (kbar)   2708.63     -0.00     -0.00
                               -0.00   2708.63     -0.00
                               -0.00     -0.00   2708.63

     hartree stress (kbar)    198.90     -0.00      0.00
                               -0.00    198.90      0.00
                                0.00      0.00    198.90

     exc-cor stress (kbar)   -778.44      0.00      0.00
                                0.00   -778.44      0.00
                                0.00      0.00   -778.44

     corecor stress (kbar)      0.00      0.00      0.00
                                0.00      0.00      0.00
                                0.00      0.00      0.00

     ewald   stress (kbar)  -2944.87     -0.00     -0.00
                               -0.00  -2944.87     -0.00
                               -0.00     -0.00  -2944.87

     hubbard stress (kbar)      0.00      0.00      0.00
                                0.00      0.00      0.00
                                0.00      0.00      0.00

     DFT-D   stress (kbar)      0.00      0.00      0.00
                                0.00      0.00      0.00
                                0.00      0.00      0.00

     XDM     stress (kbar)      0.00      0.00      0.00
                                0.00      0.00      0.00
                                0.00      0.00      0.00

     dft-nl  stress (kbar)      0.00      0.00      0.00
                                0.00      0.00      0.00
                                0.00      0.00      0.00

     TS-vdW  stress (kbar)      0.00      0.00      0.00
                                0.00      0.00      0.00
                                0.00      0.00      0.00

     MDB     stress (kbar)      0.00      0.00      0.00
                                0.00      0.00      0.00
                                0.00      0.00      0.00

     3D-RISM stress (kbar)      0.00      0.00      0.00
                                0.00      0.00      0.00
                                0.00      0.00      0.00


     Wentzcovitch Damped Cell Dynamics Minimization:
     convergence achieved, Efinal=   -15.76639707

------------------------------------------------------------------------

     Final estimate of lattice vectors (input alat units)
   0.706807058   0.706807058  -0.000000000
  -0.000000000   0.706807058   0.706807058
   0.706807058   0.000000000   0.706807058
  final unit-cell volume =    277.2847 (a.u.)^3
  input alat =       7.3226 (a.u.)
Begin final coordinates
     new unit-cell volume =    277.28470 a.u.^3 (    41.08935 Ang^3 )
     density =      2.27003 g/cm^3

CELL_PARAMETERS (angstrom)
   2.738838590   2.738838590  -0.000000000
  -0.000000000   2.738838590   2.738838590
   2.738838590   0.000000000   2.738838590

ATOMIC_POSITIONS (crystal)
Si           -0.0000000000        0.0000000000        0.0000000000
Si            0.2500000000        0.2500000000        0.2500000000
End final coordinates



     Writing all to output data dir ./wavefunc/Si.save/
 
     init_run     :      0.09s CPU      0.12s WALL (       1 calls)
     electrons    :      8.03s CPU      8.66s WALL (      19 calls)
     update_pot   :      0.85s CPU      0.87s WALL (      18 calls)
     forces       :      0.36s CPU      0.38s WALL (      19 calls)
     stress       :      0.98s CPU      1.05s WALL (      19 calls)

     Called by init_run:
     wfcinit      :      0.03s CPU      0.03s WALL (       1 calls)
     wfcinit:wfcr :      0.02s CPU      0.03s WALL (      29 calls)
     potinit      :      0.02s CPU      0.02s WALL (       1 calls)
     hinit0       :      0.02s CPU      0.02s WALL (       1 calls)

     Called by electrons:
     c_bands      :      6.07s CPU      6.37s WALL (     135 calls)
     sum_band     :      1.37s CPU      1.42s WALL (     135 calls)
     v_of_rho     :      0.55s CPU      0.59s WALL (     135 calls)
     v_h          :      0.03s CPU      0.03s WALL (     135 calls)
     v_xc         :      0.53s CPU      0.56s WALL (     135 calls)
     mix_rho      :      0.04s CPU      0.05s WALL (     135 calls)

     Called by c_bands:
     init_us_2    :      0.19s CPU      0.20s WALL (    8961 calls)
     init_us_2:cp :      0.19s CPU      0.19s WALL (    8961 calls)
     cegterg      :      5.63s CPU      5.88s WALL (    3915 calls)

     Called by sum_band:
     sum_band:wei :      0.00s CPU      0.00s WALL (     135 calls)
     sum_band:loo :      1.24s CPU      1.28s WALL (     135 calls)
     sum_band:buf :      0.01s CPU      0.01s WALL (    3915 calls)
     sum_band:ini :      0.08s CPU      0.09s WALL (    3915 calls)

     Called by *egterg:
     cdiaghg      :      0.48s CPU      0.50s WALL (    9127 calls)
     cegterg:over :      0.16s CPU      0.17s WALL (    6285 calls)
     cegterg:upda :      0.05s CPU      0.05s WALL (    6285 calls)
     cegterg:last :      0.05s CPU      0.05s WALL (    5806 calls)
     h_psi        :      4.72s CPU      4.93s WALL (   10229 calls)
     g_psi        :      0.02s CPU      0.02s WALL (    6285 calls)

     Called by h_psi:
     h_psi:calbec :      0.14s CPU      0.15s WALL (   10229 calls)
     vloc_psi     :      4.47s CPU      4.67s WALL (   10229 calls)
     add_vuspsi   :      0.07s CPU      0.07s WALL (   10229 calls)

     General routines
     calbec       :      0.22s CPU      0.23s WALL (   12984 calls)
     fft          :      0.24s CPU      0.28s WALL (    1752 calls)
     ffts         :      0.01s CPU      0.01s WALL (     270 calls)
     fftw         :      4.59s CPU      4.79s WALL (  170896 calls)
     interpolate  :      0.02s CPU      0.03s WALL (     135 calls)
 
     Parallel routines
 
     PWSCF        :     10.45s CPU     11.42s WALL

 
   This run was terminated on:  13:56:15  16Jan2024            

=------------------------------------------------------------------------------=
   JOB DONE.
=------------------------------------------------------------------------------=
