[0] MPI startup(): Intel(R) MPI Library, Version 2021.6  Build 20220227 (id: 28877f3f32)
[0] MPI startup(): Copyright (C) 2003-2022 Intel Corporation.  All rights reserved.
[0] MPI startup(): library kind: release
[0] MPI startup(): libfabric version: 1.13.2rc1-impi
[0] MPI startup(): libfabric provider: psm2
[0] MPI startup(): File "/opt/intel/oneapi/mpi/2021.6.0/etc/tuning_icx_shm-ofi_psm2.dat" not found
[0] MPI startup(): Load tuning file: "/opt/intel/oneapi/mpi/2021.6.0/etc/tuning_icx_shm-ofi.dat"
[0] MPI startup(): File "/opt/intel/oneapi/mpi/2021.6.0/etc/tuning_icx_shm-ofi.dat" not found
[0] MPI startup(): Load tuning file: "/opt/intel/oneapi/mpi/2021.6.0/etc/tuning_clx-ap_shm-ofi.dat"
[0] MPI startup(): Rank    Pid      Node name  Pin cpu
[0] MPI startup(): 0       509277   n011.hpc   {0}
[0] MPI startup(): 1       509278   n011.hpc   {1}
[0] MPI startup(): 2       509279   n011.hpc   {2}
[0] MPI startup(): 3       509280   n011.hpc   {3}
[0] MPI startup(): 4       509281   n011.hpc   {4}
[0] MPI startup(): 5       509282   n011.hpc   {5}
[0] MPI startup(): 6       509283   n011.hpc   {6}
[0] MPI startup(): 7       509284   n011.hpc   {7}
[0] MPI startup(): 8       509285   n011.hpc   {8}
[0] MPI startup(): 9       509286   n011.hpc   {9}
[0] MPI startup(): 10      509287   n011.hpc   {10}
[0] MPI startup(): 11      509288   n011.hpc   {11}
[0] MPI startup(): 12      509289   n011.hpc   {12}
[0] MPI startup(): 13      509290   n011.hpc   {13}
[0] MPI startup(): 14      509291   n011.hpc   {14}
[0] MPI startup(): 15      509292   n011.hpc   {15}
[0] MPI startup(): I_MPI_ROOT=/opt/intel/oneapi/mpi/2021.6.0
[0] MPI startup(): I_MPI_MPIRUN=mpirun
[0] MPI startup(): I_MPI_HYDRA_TOPOLIB=hwloc
[0] MPI startup(): I_MPI_HYDRA_BOOTSTRAP=slurm
[0] MPI startup(): I_MPI_INTERNAL_MEM_POLICY=default
[0] MPI startup(): I_MPI_DEBUG=5

     Program PWSCF v.7.2 starts on 16Jan2024 at 13:39: 6 

     This program is part of the open-source Quantum ESPRESSO suite
     for quantum simulation of materials; please cite
         "P. Giannozzi et al., J. Phys.:Condens. Matter 21 395502 (2009);
         "P. Giannozzi et al., J. Phys.:Condens. Matter 29 465901 (2017);
         "P. Giannozzi et al., J. Chem. Phys. 152 154105 (2020);
          URL http://www.quantum-espresso.org", 
     in publications or presentations arising from this work. More details at
     http://www.quantum-espresso.org/quote

     Parallel version (MPI), running on    16 processors

     MPI processes distributed on     1 nodes
     144940 MiB available memory on the printing compute node when the environment starts
 
     Waiting for input...
     Reading input from standard input
Warning: card  &CELL ignored
Warning: card   CELL_DYNAMICS = 'DAMP-W' ignored
Warning: card   PRESS_CONV_THR = 0.1 ignored
Warning: card  / ignored

     Current dimensions of program PWSCF are:
     Max number of different atomic species (ntypx) = 10
     Max number of k-points (npk) =  40000
     Max angular momentum in pseudopotentials (lmaxx) =  4

     File ./wavefunc/Si.update deleted, as requested

     File ./wavefunc/Si.md deleted, as requested

     File ./wavefunc/Si.bfgs deleted, as requested
     Message from routine setup:
     no reason to have ecutrho>4*ecutwfc
     Message from routine setup:
     using ibrav=0 with symmetry is DISCOURAGED, use correct ibrav instead
     Message from routine setup:
     Dynamics, you should have no symmetries
 
     R & G space division:  proc/nbgrp/npool/nimage =      16
     Subspace diagonalization in iterative solution of the eigenvalue problem:
     a serial algorithm will be used

 
     Parallelization info
     --------------------
     sticks:   dense  smooth     PW     G-vecs:    dense   smooth      PW
     Min         177      88     26                 6238     2195     348
     Max         178      89     27                 6243     2198     350
     Sum        2839    1417    421                99845    35149    5577
 
     Using Slab Decomposition
 


     bravais-lattice index     =            0
     lattice parameter (alat)  =       8.0174  a.u.
     unit-cell volume          =     364.4101 (a.u.)^3
     number of atoms/cell      =            2
     number of atomic types    =            1
     number of electrons       =         8.00
     number of Kohn-Sham states=            8
     kinetic-energy cutoff     =      80.0000  Ry
     charge density cutoff     =     640.0000  Ry
     scf convergence threshold =      1.0E-14
     mixing beta               =       0.7000
     number of iterations used =            8  plain     mixing
     energy convergence thresh.=      1.0E-04
     force convergence thresh. =      1.0E-07
     Exchange-correlation= PBE
                           (   1   4   3   4   0   0   0)
     nstep                     =        20000


     celldm(1)=   8.017429  celldm(2)=   0.000000  celldm(3)=   0.000000
     celldm(4)=   0.000000  celldm(5)=   0.000000  celldm(6)=   0.000000

     crystal axes: (cart. coord. in units of alat)
               a(1) = (   0.707107   0.707107   0.000000 )  
               a(2) = (   0.000000   0.707107   0.707107 )  
               a(3) = (   0.707107   0.000000   0.707107 )  

     reciprocal axes: (cart. coord. in units 2 pi/alat)
               b(1) = (  0.707107  0.707107 -0.707107 )  
               b(2) = ( -0.707107  0.707107  0.707107 )  
               b(3) = (  0.707107 -0.707107  0.707107 )  


     PseudoPot. # 1 for Si read from file:
     ../pseudo/Si_ONCV_PBE-1.2.upf
     MD5 check sum: 7f029a58b69e3aa87b46a36c608bf45e
     Pseudo is Norm-conserving, Zval =  4.0
     Generated using ONCVPSP code by D. R. Hamann
     Using radial grid of  602 points,  4 beta functions with: 
                l(1) =   0
                l(2) =   0
                l(3) =   1
                l(4) =   1

     atomic species   valence    mass     pseudopotential
        Si             4.00    28.08550     Si( 1.00)

      6 Sym. Ops. (no inversion) found


                                    s                        frac. trans.

      isym =  1     identity                                     

 cryst.   s( 1) = (     1          0          0      )
                  (     0          1          0      )
                  (     0          0          1      )

 cart.    s( 1) = (  1.0000000  0.0000000  0.0000000 )
                  (  0.0000000  1.0000000  0.0000000 )
                  (  0.0000000  0.0000000  1.0000000 )


      isym =  2     120 deg rotation - cart. axis [-1,-1,-1]     

 cryst.   s( 2) = (     0          0          1      )
                  (     1          0          0      )
                  (     0          1          0      )

 cart.    s( 2) = (  0.0000000  1.0000000  0.0000000 )
                  (  0.0000000  0.0000000  1.0000000 )
                  (  1.0000000  0.0000000  0.0000000 )


      isym =  3     120 deg rotation - cart. axis [1,1,1]        

 cryst.   s( 3) = (     0          1          0      )
                  (     0          0          1      )
                  (     1          0          0      )

 cart.    s( 3) = (  0.0000000  0.0000000  1.0000000 )
                  (  1.0000000  0.0000000  0.0000000 )
                  (  0.0000000  1.0000000  0.0000000 )


      isym =  4     inv. 180 deg rotation - cart. axis [1,-1,0]  

 cryst.   s( 4) = (     1          0          0      )
                  (     0          0          1      )
                  (     0          1          0      )

 cart.    s( 4) = (  0.0000000  1.0000000  0.0000000 )
                  (  1.0000000  0.0000000  0.0000000 )
                  (  0.0000000  0.0000000  1.0000000 )


      isym =  5     inv. 180 deg rotation - cart. axis [-1,0,1]  

 cryst.   s( 5) = (     0          1          0      )
                  (     1          0          0      )
                  (     0          0          1      )

 cart.    s( 5) = (  0.0000000  0.0000000  1.0000000 )
                  (  0.0000000  1.0000000  0.0000000 )
                  (  1.0000000  0.0000000  0.0000000 )


      isym =  6     inv. 180 deg rotation - cart. axis [0,1,-1]  

 cryst.   s( 6) = (     0          0          1      )
                  (     0          1          0      )
                  (     1          0          0      )

 cart.    s( 6) = (  1.0000000  0.0000000  0.0000000 )
                  (  0.0000000  0.0000000  1.0000000 )
                  (  0.0000000  1.0000000  0.0000000 )


   Cartesian axes

     site n.     atom                  positions (alat units)
         1           Si  tau(   1) = (   0.0000000   0.0000000   0.0000000  )
         2           Si  tau(   2) = (   0.4242641   0.4242641   0.4242641  )

   Crystallographic axes

     site n.     atom                  positions (cryst. coord.)
         1           Si  tau(   1) = (  0.0000000  0.0000000  0.0000000  )
         2           Si  tau(   2) = (  0.3000000  0.3000000  0.3000000  )

     number of k points=    65  Gaussian smearing, width (Ry)=  0.0019
                       cart. coord. in units 2pi/alat
        k(    1) = (   0.0000000   0.0000000   0.0000000), wk =   0.0039062
        k(    2) = (   0.0883883  -0.0883883   0.0883883), wk =   0.0234375
        k(    3) = (   0.1767767  -0.1767767   0.1767767), wk =   0.0234375
        k(    4) = (   0.2651650  -0.2651650   0.2651650), wk =   0.0234375
        k(    5) = (  -0.3535534   0.3535534  -0.3535534), wk =   0.0117188
        k(    6) = (   0.0000000   0.0000000   0.1767767), wk =   0.0234375
        k(    7) = (   0.0883883  -0.0883883   0.2651650), wk =   0.0468750
        k(    8) = (   0.1767767  -0.1767767   0.3535534), wk =   0.0468750
        k(    9) = (  -0.4419417   0.4419417  -0.2651650), wk =   0.0468750
        k(   10) = (  -0.3535534   0.3535534  -0.1767767), wk =   0.0468750
        k(   11) = (  -0.2651650   0.2651650  -0.0883883), wk =   0.0468750
        k(   12) = (  -0.1767767   0.1767767   0.0000000), wk =   0.0234375
        k(   13) = (   0.0000000   0.0000000   0.3535534), wk =   0.0234375
        k(   14) = (   0.0883883  -0.0883883   0.4419417), wk =   0.0468750
        k(   15) = (  -0.5303301   0.5303301  -0.1767767), wk =   0.0468750
        k(   16) = (  -0.4419417   0.4419417  -0.0883883), wk =   0.0468750
        k(   17) = (  -0.3535534   0.3535534   0.0000000), wk =   0.0234375
        k(   18) = (   0.0000000   0.0000000   0.5303301), wk =   0.0234375
        k(   19) = (  -0.6187184   0.6187184  -0.0883883), wk =   0.0468750
        k(   20) = (  -0.5303301   0.5303301   0.0000000), wk =   0.0234375
        k(   21) = (   0.0000000   0.0000000  -0.7071068), wk =   0.0117188
        k(   22) = (   0.1767767   0.0000000   0.3535534), wk =   0.0468750
        k(   23) = (  -0.4419417   0.6187184  -0.2651650), wk =   0.0468750
        k(   24) = (  -0.3535534   0.5303301  -0.1767767), wk =   0.0468750
        k(   25) = (  -0.5303301   0.7071068  -0.1767767), wk =   0.0468750
        k(   26) = (  -0.4419417   0.6187184  -0.0883883), wk =   0.0468750
        k(   27) = (  -0.3535534   0.5303301   0.0000000), wk =   0.0468750
        k(   28) = (   0.1767767   0.0000000  -0.7071068), wk =   0.0468750
        k(   29) = (   0.3535534   0.0000000  -0.7071068), wk =   0.0234375
        k(   30) = (   0.0883883   0.0883883   0.0883883), wk =   0.0078125
        k(   31) = (   0.1767767   0.1767767   0.1767767), wk =   0.0078125
        k(   32) = (   0.2651650   0.2651650   0.2651650), wk =   0.0078125
        k(   33) = (  -0.3535534  -0.3535534  -0.3535534), wk =   0.0039062
        k(   34) = (  -0.0883883  -0.0883883   0.2651650), wk =   0.0234375
        k(   35) = (   0.0883883   0.0883883   0.2651650), wk =   0.0234375
        k(   36) = (  -0.1767767  -0.1767767   0.3535534), wk =   0.0234375
        k(   37) = (   0.1767767   0.1767767   0.3535534), wk =   0.0234375
        k(   38) = (   0.4419417   0.4419417  -0.2651650), wk =   0.0234375
        k(   39) = (  -0.4419417  -0.4419417  -0.2651650), wk =   0.0234375
        k(   40) = (   0.3535534   0.3535534  -0.1767767), wk =   0.0234375
        k(   41) = (  -0.3535534  -0.3535534  -0.1767767), wk =   0.0234375
        k(   42) = (   0.2651650   0.2651650  -0.0883883), wk =   0.0234375
        k(   43) = (  -0.2651650  -0.2651650  -0.0883883), wk =   0.0234375
        k(   44) = (   0.1767767   0.1767767   0.0000000), wk =   0.0234375
        k(   45) = (  -0.0883883  -0.0883883   0.4419417), wk =   0.0234375
        k(   46) = (   0.0883883   0.0883883   0.4419417), wk =   0.0234375
        k(   47) = (   0.5303301   0.5303301  -0.1767767), wk =   0.0234375
        k(   48) = (  -0.5303301  -0.5303301  -0.1767767), wk =   0.0234375
        k(   49) = (   0.4419417   0.4419417  -0.0883883), wk =   0.0234375
        k(   50) = (  -0.4419417  -0.4419417  -0.0883883), wk =   0.0234375
        k(   51) = (   0.3535534   0.3535534   0.0000000), wk =   0.0234375
        k(   52) = (   0.6187184   0.6187184  -0.0883883), wk =   0.0234375
        k(   53) = (  -0.6187184  -0.6187184  -0.0883883), wk =   0.0234375
        k(   54) = (   0.5303301   0.5303301   0.0000000), wk =   0.0234375
        k(   55) = (   0.0000000  -0.1767767   0.3535534), wk =   0.0468750
        k(   56) = (   0.6187184   0.4419417  -0.2651650), wk =   0.0468750
        k(   57) = (  -0.6187184  -0.4419417  -0.2651650), wk =   0.0468750
        k(   58) = (   0.2651650   0.6187184  -0.4419417), wk =   0.0468750
        k(   59) = (  -0.5303301  -0.3535534  -0.1767767), wk =   0.0234375
        k(   60) = (   0.1767767   0.5303301  -0.3535534), wk =   0.0234375
        k(   61) = (   0.7071068   0.5303301  -0.1767767), wk =   0.0468750
        k(   62) = (   0.6187184   0.4419417  -0.0883883), wk =   0.0468750
        k(   63) = (  -0.6187184  -0.4419417  -0.0883883), wk =   0.0468750
        k(   64) = (   0.0883883   0.6187184  -0.4419417), wk =   0.0468750
        k(   65) = (   0.5303301   0.3535534   0.0000000), wk =   0.0468750

                       cryst. coord.
        k(    1) = (   0.0000000   0.0000000   0.0000000), wk =   0.0039062
        k(    2) = (   0.0000000   0.0000000   0.1250000), wk =   0.0234375
        k(    3) = (   0.0000000   0.0000000   0.2500000), wk =   0.0234375
        k(    4) = (   0.0000000   0.0000000   0.3750000), wk =   0.0234375
        k(    5) = (   0.0000000   0.0000000  -0.5000000), wk =   0.0117188
        k(    6) = (   0.0000000   0.1250000   0.1250000), wk =   0.0234375
        k(    7) = (   0.0000000   0.1250000   0.2500000), wk =   0.0468750
        k(    8) = (   0.0000000   0.1250000   0.3750000), wk =   0.0468750
        k(    9) = (   0.0000000   0.1250000  -0.5000000), wk =   0.0468750
        k(   10) = (   0.0000000   0.1250000  -0.3750000), wk =   0.0468750
        k(   11) = (   0.0000000   0.1250000  -0.2500000), wk =   0.0468750
        k(   12) = (   0.0000000   0.1250000  -0.1250000), wk =   0.0234375
        k(   13) = (   0.0000000   0.2500000   0.2500000), wk =   0.0234375
        k(   14) = (   0.0000000   0.2500000   0.3750000), wk =   0.0468750
        k(   15) = (   0.0000000   0.2500000  -0.5000000), wk =   0.0468750
        k(   16) = (   0.0000000   0.2500000  -0.3750000), wk =   0.0468750
        k(   17) = (   0.0000000   0.2500000  -0.2500000), wk =   0.0234375
        k(   18) = (   0.0000000   0.3750000   0.3750000), wk =   0.0234375
        k(   19) = (   0.0000000   0.3750000  -0.5000000), wk =   0.0468750
        k(   20) = (   0.0000000   0.3750000  -0.3750000), wk =   0.0234375
        k(   21) = (   0.0000000  -0.5000000  -0.5000000), wk =   0.0117188
        k(   22) = (   0.1250000   0.2500000   0.3750000), wk =   0.0468750
        k(   23) = (   0.1250000   0.2500000  -0.5000000), wk =   0.0468750
        k(   24) = (   0.1250000   0.2500000  -0.3750000), wk =   0.0468750
        k(   25) = (   0.1250000   0.3750000  -0.5000000), wk =   0.0468750
        k(   26) = (   0.1250000   0.3750000  -0.3750000), wk =   0.0468750
        k(   27) = (   0.1250000   0.3750000  -0.2500000), wk =   0.0468750
        k(   28) = (   0.1250000  -0.5000000  -0.3750000), wk =   0.0468750
        k(   29) = (   0.2500000  -0.5000000  -0.2500000), wk =   0.0234375
        k(   30) = (   0.1250000   0.1250000   0.1250000), wk =   0.0078125
        k(   31) = (   0.2500000   0.2500000   0.2500000), wk =   0.0078125
        k(   32) = (   0.3750000   0.3750000   0.3750000), wk =   0.0078125
        k(   33) = (  -0.5000000  -0.5000000  -0.5000000), wk =   0.0039062
        k(   34) = (  -0.1250000   0.1250000   0.1250000), wk =   0.0234375
        k(   35) = (   0.1250000   0.2500000   0.2500000), wk =   0.0234375
        k(   36) = (  -0.2500000   0.1250000   0.1250000), wk =   0.0234375
        k(   37) = (   0.2500000   0.3750000   0.3750000), wk =   0.0234375
        k(   38) = (   0.6250000   0.1250000   0.1250000), wk =   0.0234375
        k(   39) = (  -0.6250000  -0.5000000  -0.5000000), wk =   0.0234375
        k(   40) = (   0.5000000   0.1250000   0.1250000), wk =   0.0234375
        k(   41) = (  -0.5000000  -0.3750000  -0.3750000), wk =   0.0234375
        k(   42) = (   0.3750000   0.1250000   0.1250000), wk =   0.0234375
        k(   43) = (  -0.3750000  -0.2500000  -0.2500000), wk =   0.0234375
        k(   44) = (   0.2500000   0.1250000   0.1250000), wk =   0.0234375
        k(   45) = (  -0.1250000   0.2500000   0.2500000), wk =   0.0234375
        k(   46) = (   0.1250000   0.3750000   0.3750000), wk =   0.0234375
        k(   47) = (   0.7500000   0.2500000   0.2500000), wk =   0.0234375
        k(   48) = (  -0.7500000  -0.5000000  -0.5000000), wk =   0.0234375
        k(   49) = (   0.6250000   0.2500000   0.2500000), wk =   0.0234375
        k(   50) = (  -0.6250000  -0.3750000  -0.3750000), wk =   0.0234375
        k(   51) = (   0.5000000   0.2500000   0.2500000), wk =   0.0234375
        k(   52) = (   0.8750000   0.3750000   0.3750000), wk =   0.0234375
        k(   53) = (  -0.8750000  -0.5000000  -0.5000000), wk =   0.0234375
        k(   54) = (   0.7500000   0.3750000   0.3750000), wk =   0.0234375
        k(   55) = (  -0.1250000   0.1250000   0.2500000), wk =   0.0468750
        k(   56) = (   0.7500000   0.1250000   0.2500000), wk =   0.0468750
        k(   57) = (  -0.7500000  -0.5000000  -0.6250000), wk =   0.0468750
        k(   58) = (   0.6250000   0.1250000  -0.1250000), wk =   0.0468750
        k(   59) = (  -0.6250000  -0.3750000  -0.5000000), wk =   0.0234375
        k(   60) = (   0.5000000   0.1250000  -0.1250000), wk =   0.0234375
        k(   61) = (   0.8750000   0.2500000   0.3750000), wk =   0.0468750
        k(   62) = (   0.7500000   0.2500000   0.3750000), wk =   0.0468750
        k(   63) = (  -0.7500000  -0.3750000  -0.5000000), wk =   0.0468750
        k(   64) = (   0.5000000   0.1250000  -0.2500000), wk =   0.0468750
        k(   65) = (   0.6250000   0.2500000   0.3750000), wk =   0.0468750

     Dense  grid:    99845 G-vectors     FFT dimensions: (  72,  72,  72)

     Smooth grid:    35149 G-vectors     FFT dimensions: (  45,  45,  45)

     Dynamical RAM for                 wfc:       0.03 MB

     Dynamical RAM for     wfc (w. buffer):       2.22 MB

     Dynamical RAM for           str. fact:       0.10 MB

     Dynamical RAM for           local pot:       0.00 MB

     Dynamical RAM for          nlocal pot:       0.07 MB

     Dynamical RAM for                qrad:       0.58 MB

     Dynamical RAM for          rho,v,vnew:       0.88 MB

     Dynamical RAM for               rhoin:       0.29 MB

     Dynamical RAM for            rho*nmix:       1.52 MB

     Dynamical RAM for           G-vectors:       0.37 MB

     Dynamical RAM for          h,s,v(r/c):       0.01 MB

     Dynamical RAM for          <psi|beta>:       0.00 MB

     Dynamical RAM for                 psi:       0.07 MB

     Dynamical RAM for                hpsi:       0.07 MB

     Dynamical RAM for      wfcinit/wfcrot:       0.07 MB

     Estimated static dynamical RAM per process >       5.68 MB

     Estimated max dynamical RAM per process >       7.35 MB

     Estimated total dynamical RAM >     117.66 MB

     Initial potential from superposition of free atoms

     starting charge       7.9075, renormalised to       8.0000
     Starting wfcs are random

     total cpu time spent up to now is        0.2 secs

     Self-consistent Calculation

     iteration #  1     ecut=    80.00 Ry     beta= 0.70
     Davidson diagonalization with overlap

---- Real-time Memory Report at c_bands before calling an iterative solver
           136 MiB given to the printing process from OS
             0 MiB allocation reported by mallinfo(arena+hblkhd)
        144587 MiB available memory on the node where the printing process lives
------------------
     ethr =  1.00E-02,  avg # of iterations =  9.0

     Threshold (ethr) on eigenvalues was too large:
     Diagonalizing with lowered threshold

     Davidson diagonalization with overlap

---- Real-time Memory Report at c_bands before calling an iterative solver
           139 MiB given to the printing process from OS
             0 MiB allocation reported by mallinfo(arena+hblkhd)
        144572 MiB available memory on the node where the printing process lives
------------------
     ethr =  3.61E-04,  avg # of iterations =  2.6

     total cpu time spent up to now is        0.9 secs

     total energy              =     -15.67400859 Ry
     estimated scf accuracy    <       0.02972983 Ry

     iteration #  2     ecut=    80.00 Ry     beta= 0.70
     Davidson diagonalization with overlap

---- Real-time Memory Report at c_bands before calling an iterative solver
           141 MiB given to the printing process from OS
             0 MiB allocation reported by mallinfo(arena+hblkhd)
        144526 MiB available memory on the node where the printing process lives
------------------
     ethr =  3.72E-04,  avg # of iterations =  1.1

     total cpu time spent up to now is        1.1 secs

     total energy              =     -15.67487110 Ry
     estimated scf accuracy    <       0.00177751 Ry

     iteration #  3     ecut=    80.00 Ry     beta= 0.70
     Davidson diagonalization with overlap

---- Real-time Memory Report at c_bands before calling an iterative solver
           142 MiB given to the printing process from OS
             0 MiB allocation reported by mallinfo(arena+hblkhd)
        144523 MiB available memory on the node where the printing process lives
------------------
     ethr =  2.22E-05,  avg # of iterations =  4.0

     total cpu time spent up to now is        1.3 secs

     total energy              =     -15.67496168 Ry
     estimated scf accuracy    <       0.00002022 Ry

     iteration #  4     ecut=    80.00 Ry     beta= 0.70
     Davidson diagonalization with overlap

---- Real-time Memory Report at c_bands before calling an iterative solver
           142 MiB given to the printing process from OS
             0 MiB allocation reported by mallinfo(arena+hblkhd)
        144521 MiB available memory on the node where the printing process lives
------------------
     ethr =  2.53E-07,  avg # of iterations =  3.9

     total cpu time spent up to now is        1.6 secs

     total energy              =     -15.67497414 Ry
     estimated scf accuracy    <       0.00000052 Ry

     iteration #  5     ecut=    80.00 Ry     beta= 0.70
     Davidson diagonalization with overlap

---- Real-time Memory Report at c_bands before calling an iterative solver
           143 MiB given to the printing process from OS
             0 MiB allocation reported by mallinfo(arena+hblkhd)
        144519 MiB available memory on the node where the printing process lives
------------------
     ethr =  6.44E-09,  avg # of iterations =  2.8

     total cpu time spent up to now is        1.8 secs

     total energy              =     -15.67497443 Ry
     estimated scf accuracy    <       0.00000002 Ry

     iteration #  6     ecut=    80.00 Ry     beta= 0.70
     Davidson diagonalization with overlap

---- Real-time Memory Report at c_bands before calling an iterative solver
           143 MiB given to the printing process from OS
             0 MiB allocation reported by mallinfo(arena+hblkhd)
        144517 MiB available memory on the node where the printing process lives
------------------
     ethr =  2.58E-10,  avg # of iterations =  2.6

     total cpu time spent up to now is        2.0 secs

     total energy              =     -15.67497444 Ry
     estimated scf accuracy    <          4.0E-10 Ry

     iteration #  7     ecut=    80.00 Ry     beta= 0.70
     Davidson diagonalization with overlap

---- Real-time Memory Report at c_bands before calling an iterative solver
           143 MiB given to the printing process from OS
             0 MiB allocation reported by mallinfo(arena+hblkhd)
        144517 MiB available memory on the node where the printing process lives
------------------
     ethr =  5.00E-12,  avg # of iterations =  3.3

     total cpu time spent up to now is        2.3 secs

     total energy              =     -15.67497444 Ry
     estimated scf accuracy    <          5.3E-11 Ry

     iteration #  8     ecut=    80.00 Ry     beta= 0.70
     Davidson diagonalization with overlap

---- Real-time Memory Report at c_bands before calling an iterative solver
           143 MiB given to the printing process from OS
             0 MiB allocation reported by mallinfo(arena+hblkhd)
        144516 MiB available memory on the node where the printing process lives
------------------
     ethr =  6.68E-13,  avg # of iterations =  2.0

     total cpu time spent up to now is        2.5 secs

     total energy              =     -15.67497444 Ry
     estimated scf accuracy    <          2.8E-12 Ry

     iteration #  9     ecut=    80.00 Ry     beta= 0.70
     Davidson diagonalization with overlap

---- Real-time Memory Report at c_bands before calling an iterative solver
           143 MiB given to the printing process from OS
             0 MiB allocation reported by mallinfo(arena+hblkhd)
        144515 MiB available memory on the node where the printing process lives
------------------
     ethr =  1.00E-13,  avg # of iterations =  2.0

     total cpu time spent up to now is        2.7 secs

     total energy              =     -15.67497444 Ry
     estimated scf accuracy    <          7.4E-14 Ry

     iteration # 10     ecut=    80.00 Ry     beta= 0.70
     Davidson diagonalization with overlap

---- Real-time Memory Report at c_bands before calling an iterative solver
           144 MiB given to the printing process from OS
             0 MiB allocation reported by mallinfo(arena+hblkhd)
        144513 MiB available memory on the node where the printing process lives
------------------
     ethr =  1.00E-13,  avg # of iterations =  1.0

     total cpu time spent up to now is        2.9 secs

     End of self-consistent calculation

          k = 0.0000 0.0000 0.0000 (  4477 PWs)   bands (ev):

    -6.8466   2.5227   2.5227   3.6146   4.6373   5.8921   6.2496   6.2496

     occupation numbers 
     1.0000   1.0000   1.0000   1.0000   0.0000   0.0000   0.0000   0.0000

          k = 0.0884-0.0884 0.0884 (  4417 PWs)   bands (ev):

    -6.6859   1.1064   2.3456   4.4341   4.6867   5.6049   6.6864   6.7637

     occupation numbers 
     1.0000   1.0000   1.0000   0.0000   0.0000   0.0000   0.0000   0.0000

          k = 0.1768-0.1768 0.1768 (  4405 PWs)   bands (ev):

    -6.2166  -0.6806   2.0083   4.1465   4.6889   5.7223   7.6998   8.0226

     occupation numbers 
     1.0000   1.0000   1.0000   0.0344   0.0000   0.0000   0.0000   0.0000

          k = 0.2652-0.2652 0.2652 (  4416 PWs)   bands (ev):

    -5.5085  -2.2323   1.7455   3.9776   4.3354   5.5841   8.3419   9.7022

     occupation numbers 
     1.0000   1.0000   1.0000   1.0000   0.0000   0.0000   0.0000   0.0000

          k =-0.3536 0.3536-0.3536 (  4398 PWs)   bands (ev):

    -4.9933  -3.0358   1.6508   3.9376   4.1946   5.4677   8.3452  10.2695

     occupation numbers 
     1.0000   1.0000   1.0000   1.0000   0.0000   0.0000   0.0000   0.0000

          k = 0.0000 0.0000 0.1768 (  4420 PWs)   bands (ev):

    -6.6438   1.1864   2.1566   3.8246   4.6161   5.9784   6.8347   6.8759

     occupation numbers 
     1.0000   1.0000   1.0000   1.0000   0.0000   0.0000   0.0000   0.0000

          k = 0.0884-0.0884 0.2652 (  4415 PWs)   bands (ev):

    -6.2875  -0.1561   1.7648   3.4068   5.2625   5.8039   7.0564   7.9488

     occupation numbers 
     1.0000   1.0000   1.0000   1.0000   0.0000   0.0000   0.0000   0.0000

          k = 0.1768-0.1768 0.3536 (  4414 PWs)   bands (ev):

    -5.6550  -1.7107   1.3249   3.2143   5.3653   5.9508   7.5796   8.4765

     occupation numbers 
     1.0000   1.0000   1.0000   1.0000   0.0000   0.0000   0.0000   0.0000

          k =-0.4419 0.4419-0.2652 (  4409 PWs)   bands (ev):

    -4.9498  -2.8980   1.0505   3.2842   5.1128   5.9029   8.2904   9.1423

     occupation numbers 
     1.0000   1.0000   1.0000   1.0000   0.0000   0.0000   0.0000   0.0000

          k =-0.3536 0.3536-0.1768 (  4394 PWs)   bands (ev):

    -5.0986  -2.7130   1.0150   3.6109   5.0404   5.8395   8.2716   9.5589

     occupation numbers 
     1.0000   1.0000   1.0000   1.0000   0.0000   0.0000   0.0000   0.0000

          k =-0.2652 0.2652-0.0884 (  4406 PWs)   bands (ev):

    -5.8385  -1.4485   1.2563   4.1607   5.0641   5.8462   7.6351   8.7360

     occupation numbers 
     1.0000   1.0000   1.0000   0.0047   0.0000   0.0000   0.0000   0.0000

          k =-0.1768 0.1768 0.0000 (  4415 PWs)   bands (ev):

    -6.4097  -0.0191   1.7922   4.8573   4.9272   5.4913   6.7361   7.9406

     occupation numbers 
     1.0000   1.0000   1.0000   0.0000   0.0000   0.0000   0.0000   0.0000

          k = 0.0000 0.0000 0.3536 (  4432 PWs)   bands (ev):

    -6.0486  -0.5083   1.5151   2.8568   4.3834   6.1126   7.8670   8.2946

     occupation numbers 
     1.0000   1.0000   1.0000   1.0000   0.0000   0.0000   0.0000   0.0000

          k = 0.0884-0.0884 0.4419 (  4411 PWs)   bands (ev):

    -5.5204  -1.5547   0.9558   2.5819   4.8414   5.7778   7.8612   9.4009

     occupation numbers 
     1.0000   1.0000   1.0000   1.0000   0.0000   0.0000   0.0000   0.0000

          k =-0.5303 0.5303-0.1768 (  4404 PWs)   bands (ev):

    -4.7874  -2.7066   0.3619   2.6020   5.1915   6.7289   7.6128   9.1789

     occupation numbers 
     1.0000   1.0000   1.0000   1.0000   0.0000   0.0000   0.0000   0.0000

          k =-0.4419 0.4419-0.0884 (  4399 PWs)   bands (ev):

    -4.4753  -3.1652   0.1388   2.9177   5.2631   7.3289   8.6418   8.7892

     occupation numbers 
     1.0000   1.0000   1.0000   1.0000   0.0000   0.0000   0.0000   0.0000

          k =-0.3536 0.3536 0.0000 (  4403 PWs)   bands (ev):

    -5.1873  -2.3433   0.4260   3.4917   5.3458   7.0276   7.7598   8.6926

     occupation numbers 
     1.0000   1.0000   1.0000   1.0000   0.0000   0.0000   0.0000   0.0000

          k = 0.0000 0.0000 0.5303 (  4380 PWs)   bands (ev):

    -5.1155  -2.1076   1.0378   2.2144   3.9888   5.1530   9.8345  10.0588

     occupation numbers 
     1.0000   1.0000   1.0000   1.0000   1.0000   0.0000   0.0000   0.0000

          k =-0.6187 0.6187-0.0884 (  4393 PWs)   bands (ev):

    -4.4903  -2.9088   0.4843   2.1499   4.6774   4.9980   9.6899  10.7162

     occupation numbers 
     1.0000   1.0000   1.0000   1.0000   0.0000   0.0000   0.0000   0.0000

          k =-0.5303 0.5303 0.0000 (  4392 PWs)   bands (ev):

    -3.7807  -3.7086  -0.0475   2.3935   5.0019   6.5437   9.1288   9.8993

     occupation numbers 
     1.0000   1.0000   1.0000   1.0000   0.0000   0.0000   0.0000   0.0000

          k = 0.0000 0.0000-0.7071 (  4360 PWs)   bands (ev):

    -4.2653  -3.1818   0.8680   1.9932   3.8771   4.7212  11.4124  11.5864

     occupation numbers 
     1.0000   1.0000   1.0000   1.0000   1.0000   0.0000   0.0000   0.0000

          k = 0.1768 0.0000 0.3536 (  4423 PWs)   bands (ev):

    -5.9537  -0.4657   1.5335   1.9197   5.1609   6.3329   7.0550   8.0541

     occupation numbers 
     1.0000   1.0000   1.0000   1.0000   0.0000   0.0000   0.0000   0.0000

          k =-0.4419 0.6187-0.2652 (  4403 PWs)   bands (ev):

    -5.2935  -1.9681   1.0970   1.8979   5.6698   6.4119   7.2320   9.3033

     occupation numbers 
     1.0000   1.0000   1.0000   1.0000   0.0000   0.0000   0.0000   0.0000

          k =-0.3536 0.5303-0.1768 (  4392 PWs)   bands (ev):

    -4.6805  -2.9891   0.8084   2.2015   5.4677   6.2702   8.8849   9.2615

     occupation numbers 
     1.0000   1.0000   1.0000   1.0000   0.0000   0.0000   0.0000   0.0000

          k =-0.5303 0.7071-0.1768 (  4402 PWs)   bands (ev):

    -5.1187  -1.9013   0.7983   1.5086   5.0042   6.0446   7.6422   9.9740

     occupation numbers 
     1.0000   1.0000   1.0000   1.0000   0.0000   0.0000   0.0000   0.0000

          k =-0.4419 0.6187-0.0884 (  4393 PWs)   bands (ev):

    -4.4122  -2.9705   0.2135   1.7874   5.8870   6.6123   7.3574   9.8967

     occupation numbers 
     1.0000   1.0000   1.0000   1.0000   0.0000   0.0000   0.0000   0.0000

          k =-0.3536 0.5303 0.0000 (  4405 PWs)   bands (ev):

    -4.3342  -3.2091   0.0514   2.3945   5.7923   7.0761   8.3934   8.9787

     occupation numbers 
     1.0000   1.0000   1.0000   1.0000   0.0000   0.0000   0.0000   0.0000

          k = 0.1768 0.0000-0.7071 (  4372 PWs)   bands (ev):

    -4.2357  -3.1493   0.4920   1.6311   4.7946   5.6039   9.4264  10.5174

     occupation numbers 
     1.0000   1.0000   1.0000   1.0000   0.0000   0.0000   0.0000   0.0000

          k = 0.3536 0.0000-0.7071 (  4388 PWs)   bands (ev):

    -4.2050  -3.1154   0.2019   1.3505   6.4769   6.6417   7.4532   9.0151

     occupation numbers 
     1.0000   1.0000   1.0000   1.0000   0.0000   0.0000   0.0000   0.0000

          k = 0.0884 0.0884 0.0884 (  4417 PWs)   bands (ev):

    -6.7224   2.4388   2.4388   2.9342   3.6687   6.3160   6.3160   7.2055

     occupation numbers 
     1.0000   1.0000   1.0000   1.0000   1.0000   0.0000   0.0000   0.0000

          k = 0.1768 0.1768 0.1768 (  4405 PWs)   bands (ev):

    -6.3828   1.1970   2.2621   2.2621   3.3048   6.3548   6.3548   8.6117

     occupation numbers 
     1.0000   1.0000   1.0000   1.0000   1.0000   0.0000   0.0000   0.0000

          k = 0.2652 0.2652 0.2652 (  4416 PWs)   bands (ev):

    -5.9593  -0.1516   2.1128   2.1128   3.0588   6.2631   6.2631   9.4507

     occupation numbers 
     1.0000   1.0000   1.0000   1.0000   1.0000   0.0000   0.0000   0.0000

          k =-0.3536-0.3536-0.3536 (  4398 PWs)   bands (ev):

    -5.7439  -0.6827   2.0572   2.0572   2.9699   6.2007   6.2007   9.5689

     occupation numbers 
     1.0000   1.0000   1.0000   1.0000   1.0000   0.0000   0.0000   0.0000

          k =-0.0884-0.0884 0.2652 (  4415 PWs)   bands (ev):

    -6.2520  -0.4507   1.7868   3.9627   4.8077   5.8371   7.8329   7.9730

     occupation numbers 
     1.0000   1.0000   1.0000   1.0000   0.0000   0.0000   0.0000   0.0000

          k = 0.0884 0.0884 0.2652 (  4415 PWs)   bands (ev):

    -6.3686   0.9108   1.9298   2.1576   4.4430   6.2651   7.0260   7.5274

     occupation numbers 
     1.0000   1.0000   1.0000   1.0000   0.0000   0.0000   0.0000   0.0000

          k =-0.1768-0.1768 0.3536 (  4414 PWs)   bands (ev):

    -5.5910  -1.9584   1.5479   3.2919   4.9679   5.6758   8.8197   9.3836

     occupation numbers 
     1.0000   1.0000   1.0000   1.0000   0.0000   0.0000   0.0000   0.0000

          k = 0.1768 0.1768 0.3536 (  4414 PWs)   bands (ev):

    -5.9510   0.0835   1.2248   1.7963   4.2484   6.2364   6.9430   8.3669

     occupation numbers 
     1.0000   1.0000   1.0000   1.0000   0.0000   0.0000   0.0000   0.0000

          k = 0.4419 0.4419-0.2652 (  4409 PWs)   bands (ev):

    -4.9353  -2.9620   1.5125   2.7373   4.8435   5.8980   8.7870  10.4291

     occupation numbers 
     1.0000   1.0000   1.0000   1.0000   0.0000   0.0000   0.0000   0.0000

          k =-0.4419-0.4419-0.2652 (  4409 PWs)   bands (ev):

    -5.6286  -0.6387   0.9060   1.8103   4.1254   6.1765   6.7604   9.2569

     occupation numbers 
     1.0000   1.0000   1.0000   1.0000   0.2515   0.0000   0.0000   0.0000

          k = 0.3536 0.3536-0.1768 (  4394 PWs)   bands (ev):

    -5.2307  -2.4651   1.6823   2.4279   4.8865   6.2206   8.6183   9.2898

     occupation numbers 
     1.0000   1.0000   1.0000   1.0000   0.0000   0.0000   0.0000   0.0000

          k =-0.3536-0.3536-0.1768 (  4394 PWs)   bands (ev):

    -5.7051  -0.4750   0.8475   1.9609   4.1467   6.2848   6.6614   9.2683

     occupation numbers 
     1.0000   1.0000   1.0000   1.0000   0.0333   0.0000   0.0000   0.0000

          k = 0.2652 0.2652-0.0884 (  4406 PWs)   bands (ev):

    -5.9522  -0.9838   2.0089   2.3967   5.0268   6.4753   7.7392   7.8838

     occupation numbers 
     1.0000   1.0000   1.0000   1.0000   0.0000   0.0000   0.0000   0.0000

          k =-0.2652-0.2652-0.0884 (  4406 PWs)   bands (ev):

    -6.0973   0.3355   1.2326   2.1821   4.3155   6.4657   6.6649   8.4241

     occupation numbers 
     1.0000   1.0000   1.0000   1.0000   0.0000   0.0000   0.0000   0.0000

          k = 0.1768 0.1768 0.0000 (  4415 PWs)   bands (ev):

    -6.4842   0.8221   2.3535   2.6382   4.5577   6.2990   6.6566   7.5643

     occupation numbers 
     1.0000   1.0000   1.0000   1.0000   0.0000   0.0000   0.0000   0.0000

          k =-0.0884-0.0884 0.4419 (  4411 PWs)   bands (ev):

    -5.4489  -1.8659   1.2523   2.7207   4.2563   5.8428   9.3499   9.6291

     occupation numbers 
     1.0000   1.0000   1.0000   1.0000   0.0000   0.0000   0.0000   0.0000

          k = 0.0884 0.0884 0.4419 (  4411 PWs)   bands (ev):

    -5.6655  -0.8745   1.3468   1.5334   4.3877   6.4347   7.6609   8.3359

     occupation numbers 
     1.0000   1.0000   1.0000   1.0000   0.0000   0.0000   0.0000   0.0000

          k = 0.5303 0.5303-0.1768 (  4404 PWs)   bands (ev):

    -4.7511  -2.8755   1.2179   1.9074   4.3423   6.6291   9.5732   9.9415

     occupation numbers 
     1.0000   1.0000   1.0000   1.0000   0.0000   0.0000   0.0000   0.0000

          k =-0.5303-0.5303-0.1768 (  4404 PWs)   bands (ev):

    -5.2839  -1.2974   0.6264   1.3501   4.3612   7.1859   7.8185   8.1490

     occupation numbers 
     1.0000   1.0000   1.0000   1.0000   0.0000   0.0000   0.0000   0.0000

          k = 0.4419 0.4419-0.0884 (  4399 PWs)   bands (ev):

    -4.8571  -2.5949   1.2826   1.4155   4.5393   7.3876   9.0579   9.4531

     occupation numbers 
     1.0000   1.0000   1.0000   1.0000   0.0000   0.0000   0.0000   0.0000

          k =-0.4419-0.4419-0.0884 (  4399 PWs)   bands (ev):

    -5.2220  -1.4155   0.3917   1.5220   4.4931   7.2616   7.9615   8.5854

     occupation numbers 
     1.0000   1.0000   1.0000   1.0000   0.0000   0.0000   0.0000   0.0000

          k = 0.3536 0.3536 0.0000 (  4403 PWs)   bands (ev):

    -5.5455  -1.2374   1.0132   1.7912   4.7933   7.3100   7.8623   7.9360

     occupation numbers 
     1.0000   1.0000   1.0000   1.0000   0.0000   0.0000   0.0000   0.0000

          k = 0.6187 0.6187-0.0884 (  4393 PWs)   bands (ev):

    -4.4600  -3.0093   0.9641   1.8035   3.9429   5.5311  10.8074  11.2241

     occupation numbers 
     1.0000   1.0000   1.0000   1.0000   1.0000   0.0000   0.0000   0.0000

          k =-0.6187-0.6187-0.0884 (  4393 PWs)   bands (ev):

    -4.7317  -2.4785   0.9956   1.3941   4.0228   5.6752   9.6355   9.9976

     occupation numbers 
     1.0000   1.0000   1.0000   1.0000   1.0000   0.0000   0.0000   0.0000

          k = 0.5303 0.5303 0.0000 (  4392 PWs)   bands (ev):

    -4.6028  -2.6482   0.9254   1.1398   4.1605   6.9981   9.3863   9.7875

     occupation numbers 
     1.0000   1.0000   1.0000   1.0000   0.0048   0.0000   0.0000   0.0000

          k = 0.0000-0.1768 0.3536 (  4423 PWs)   bands (ev):

    -5.7901  -1.3598   1.1035   3.5278   5.0691   6.0182   7.8626   8.5754

     occupation numbers 
     1.0000   1.0000   1.0000   1.0000   0.0000   0.0000   0.0000   0.0000

          k = 0.6187 0.4419-0.2652 (  4403 PWs)   bands (ev):

    -5.0691  -2.5402   0.7875   2.8108   5.3194   6.1044   8.7699   9.5515

     occupation numbers 
     1.0000   1.0000   1.0000   1.0000   0.0000   0.0000   0.0000   0.0000

          k =-0.6187-0.4419-0.2652 (  4403 PWs)   bands (ev):

    -5.5372  -0.8542   0.6987   1.4917   5.0337   6.2265   7.9393   8.0361

     occupation numbers 
     1.0000   1.0000   1.0000   1.0000   0.0000   0.0000   0.0000   0.0000

          k = 0.2652 0.6187-0.4419 (  4403 PWs)   bands (ev):

    -5.0802  -2.4577   0.4557   3.1716   5.3477   6.9634   7.8210   8.1766

     occupation numbers 
     1.0000   1.0000   1.0000   1.0000   0.0000   0.0000   0.0000   0.0000

          k =-0.5303-0.3536-0.1768 (  4392 PWs)   bands (ev):

    -5.3249  -1.0927   0.3792   1.3915   4.9804   6.1040   7.9756   8.7551

     occupation numbers 
     1.0000   1.0000   1.0000   1.0000   0.0000   0.0000   0.0000   0.0000

          k = 0.1768 0.5303-0.3536 (  4392 PWs)   bands (ev):

    -4.5160  -3.1831   0.2419   3.0317   5.3361   7.4834   7.9523   8.7919

     occupation numbers 
     1.0000   1.0000   1.0000   1.0000   0.0000   0.0000   0.0000   0.0000

          k = 0.7071 0.5303-0.1768 (  4402 PWs)   bands (ev):

    -4.8462  -2.6026   0.6146   2.3431   4.8110   5.7701   9.2373   9.8207

     occupation numbers 
     1.0000   1.0000   1.0000   1.0000   0.0000   0.0000   0.0000   0.0000

          k = 0.6187 0.4419-0.0884 (  4393 PWs)   bands (ev):

    -4.3759  -3.0795   0.6047   1.5197   5.0310   6.7777   8.9454   9.4702

     occupation numbers 
     1.0000   1.0000   1.0000   1.0000   0.0000   0.0000   0.0000   0.0000

          k =-0.6187-0.4419-0.0884 (  4393 PWs)   bands (ev):

    -4.8199  -2.1685   0.7703   0.8295   5.0719   6.9547   7.6569   9.9423

     occupation numbers 
     1.0000   1.0000   1.0000   1.0000   0.0000   0.0000   0.0000   0.0000

          k = 0.0884 0.6187-0.4419 (  4393 PWs)   bands (ev):

    -4.0791  -3.4190   0.0126   2.2127   5.5694   6.7197   8.7924   9.0265

     occupation numbers 
     1.0000   1.0000   1.0000   1.0000   0.0000   0.0000   0.0000   0.0000

          k = 0.5303 0.3536 0.0000 (  4405 PWs)   bands (ev):

    -4.9145  -2.1566   0.7276   1.1121   5.3184   7.0719   7.6209   9.8323

     occupation numbers 
     1.0000   1.0000   1.0000   1.0000   0.0000   0.0000   0.0000   0.0000

     the Fermi energy is     4.1132 ev

!    total energy              =     -15.67497444 Ry
     estimated scf accuracy    <          4.3E-15 Ry
     smearing contrib. (-TS)   =      -0.00001607 Ry
     internal energy E=F+TS    =     -15.67495837 Ry

     convergence has been achieved in  10 iterations

     Forces acting on atoms (cartesian axes, Ry/au):

     atom    1 type  1   force =     0.03091359    0.03091359    0.03091359
     atom    2 type  1   force =    -0.03091359   -0.03091359   -0.03091359
     The non-local contrib.  to forces
     atom    1 type  1   force =     0.01732934    0.01732934    0.01732934
     atom    2 type  1   force =    -0.01732965   -0.01732965   -0.01732965
     The ionic contribution  to forces
     atom    1 type  1   force =     0.04389506    0.04389506    0.04389506
     atom    2 type  1   force =    -0.04389506   -0.04389506   -0.04389506
     The local contribution  to forces
     atom    1 type  1   force =    -0.03031085   -0.03031085   -0.03031085
     atom    2 type  1   force =     0.03031106    0.03031106    0.03031106
     The core correction contribution to forces
     atom    1 type  1   force =     0.00000000    0.00000000    0.00000000
     atom    2 type  1   force =     0.00000000    0.00000000    0.00000000
     The Hubbard contrib.    to forces
     atom    1 type  1   force =     0.00000000    0.00000000    0.00000000
     atom    2 type  1   force =     0.00000000    0.00000000    0.00000000
     The SCF correction term to forces
     atom    1 type  1   force =    -0.00000001   -0.00000001   -0.00000001
     atom    2 type  1   force =     0.00000001    0.00000001    0.00000001

     Total force =     0.075723     Total SCF correction =     0.000000


     Computing stress (Cartesian axis) and pressure

          total   stress  (Ry/bohr**3)                   (kbar)     P=     -108.62
  -0.00073839   0.00003846   0.00003846         -108.62        5.66        5.66
   0.00003846  -0.00073839   0.00003846            5.66     -108.62        5.66
   0.00003846   0.00003846  -0.00073839            5.66        5.66     -108.62

     kinetic stress (kbar)   1495.00     51.77     51.77
                               51.77   1495.00     51.77
                               51.77     51.77   1495.00

     local   stress (kbar)  -1174.35    554.03    554.03
                              554.03  -1174.35    554.03
                              554.03    554.03  -1174.35

     nonloc. stress (kbar)   1980.84    -44.25    -44.25
                              -44.25   1980.84    -44.25
                              -44.25    -44.25   1980.84

     hartree stress (kbar)    183.50    -84.95    -84.95
                              -84.95    183.50    -84.95
                              -84.95    -84.95    183.50

     exc-cor stress (kbar)   -558.64     -1.25     -1.25
                               -1.25   -558.64     -1.25
                               -1.25     -1.25   -558.64

     corecor stress (kbar)      0.00      0.00      0.00
                                0.00      0.00      0.00
                                0.00      0.00      0.00

     ewald   stress (kbar)  -2034.96   -469.70   -469.70
                             -469.70  -2034.96   -469.70
                             -469.70   -469.70  -2034.96

     hubbard stress (kbar)      0.00      0.00      0.00
                                0.00      0.00      0.00
                                0.00      0.00      0.00

     DFT-D   stress (kbar)      0.00      0.00      0.00
                                0.00      0.00      0.00
                                0.00      0.00      0.00

     XDM     stress (kbar)      0.00      0.00      0.00
                                0.00      0.00      0.00
                                0.00      0.00      0.00

     dft-nl  stress (kbar)      0.00      0.00      0.00
                                0.00      0.00      0.00
                                0.00      0.00      0.00

     TS-vdW  stress (kbar)      0.00      0.00      0.00
                                0.00      0.00      0.00
                                0.00      0.00      0.00

     MDB     stress (kbar)      0.00      0.00      0.00
                                0.00      0.00      0.00
                                0.00      0.00      0.00

     3D-RISM stress (kbar)      0.00      0.00      0.00
                                0.00      0.00      0.00
                                0.00      0.00      0.00


     Damped Dynamics Calculation

     Entering Dynamics:    iteration =     1

ATOMIC_POSITIONS (crystal)
Si            0.0026922271        0.0026922271        0.0026922271
Si            0.2973077729        0.2973077729        0.2973077729



     Writing config-only to output data dir ./wavefunc/Si.save/
     NEW-OLD atomic charge density approx. for the potential

     total cpu time spent up to now is        3.0 secs

     Self-consistent Calculation

     iteration #  1     ecut=    80.00 Ry     beta= 0.70
     Davidson diagonalization with overlap

---- Real-time Memory Report at c_bands before calling an iterative solver
           206 MiB given to the printing process from OS
             0 MiB allocation reported by mallinfo(arena+hblkhd)
        143581 MiB available memory on the node where the printing process lives
------------------
     ethr =  1.00E-06,  avg # of iterations =  6.9

     total cpu time spent up to now is        3.5 secs

     total energy              =     -15.68077349 Ry
     estimated scf accuracy    <       0.00011085 Ry

     iteration #  2     ecut=    80.00 Ry     beta= 0.70
     Davidson diagonalization with overlap

---- Real-time Memory Report at c_bands before calling an iterative solver
           206 MiB given to the printing process from OS
             0 MiB allocation reported by mallinfo(arena+hblkhd)
        143573 MiB available memory on the node where the printing process lives
------------------
     ethr =  1.39E-06,  avg # of iterations =  1.2

     total cpu time spent up to now is        3.6 secs

     total energy              =     -15.68079021 Ry
     estimated scf accuracy    <       0.00000716 Ry

     iteration #  3     ecut=    80.00 Ry     beta= 0.70
     Davidson diagonalization with overlap

---- Real-time Memory Report at c_bands before calling an iterative solver
           206 MiB given to the printing process from OS
             0 MiB allocation reported by mallinfo(arena+hblkhd)
        143571 MiB available memory on the node where the printing process lives
------------------
     ethr =  8.95E-08,  avg # of iterations =  1.4

     total cpu time spent up to now is        3.8 secs

     total energy              =     -15.68079181 Ry
     estimated scf accuracy    <       0.00000061 Ry

     iteration #  4     ecut=    80.00 Ry     beta= 0.70
     Davidson diagonalization with overlap

---- Real-time Memory Report at c_bands before calling an iterative solver
           206 MiB given to the printing process from OS
             0 MiB allocation reported by mallinfo(arena+hblkhd)
        143571 MiB available memory on the node where the printing process lives
------------------
     ethr =  7.59E-09,  avg # of iterations =  2.0

     total cpu time spent up to now is        4.0 secs

     total energy              =     -15.68079191 Ry
     estimated scf accuracy    <          6.6E-09 Ry

     iteration #  5     ecut=    80.00 Ry     beta= 0.70
     Davidson diagonalization with overlap

---- Real-time Memory Report at c_bands before calling an iterative solver
           206 MiB given to the printing process from OS
             0 MiB allocation reported by mallinfo(arena+hblkhd)
        143571 MiB available memory on the node where the printing process lives
------------------
     ethr =  8.22E-11,  avg # of iterations =  3.5

     total cpu time spent up to now is        4.3 secs

     total energy              =     -15.68079192 Ry
     estimated scf accuracy    <          4.6E-10 Ry

     iteration #  6     ecut=    80.00 Ry     beta= 0.70
     Davidson diagonalization with overlap

---- Real-time Memory Report at c_bands before calling an iterative solver
           206 MiB given to the printing process from OS
             0 MiB allocation reported by mallinfo(arena+hblkhd)
        143569 MiB available memory on the node where the printing process lives
------------------
     ethr =  5.74E-12,  avg # of iterations =  2.0

     total cpu time spent up to now is        4.5 secs

     total energy              =     -15.68079192 Ry
     estimated scf accuracy    <          1.1E-11 Ry

     iteration #  7     ecut=    80.00 Ry     beta= 0.70
     Davidson diagonalization with overlap

---- Real-time Memory Report at c_bands before calling an iterative solver
           207 MiB given to the printing process from OS
             0 MiB allocation reported by mallinfo(arena+hblkhd)
        143568 MiB available memory on the node where the printing process lives
------------------
     ethr =  1.33E-13,  avg # of iterations =  3.1

     total cpu time spent up to now is        4.7 secs

     total energy              =     -15.68079192 Ry
     estimated scf accuracy    <          1.2E-12 Ry

     iteration #  8     ecut=    80.00 Ry     beta= 0.70
     Davidson diagonalization with overlap

---- Real-time Memory Report at c_bands before calling an iterative solver
           207 MiB given to the printing process from OS
             0 MiB allocation reported by mallinfo(arena+hblkhd)
        143565 MiB available memory on the node where the printing process lives
------------------
     ethr =  1.00E-13,  avg # of iterations =  1.0

     total cpu time spent up to now is        4.9 secs

     total energy              =     -15.68079192 Ry
     estimated scf accuracy    <          1.8E-14 Ry

     iteration #  9     ecut=    80.00 Ry     beta= 0.70
     Davidson diagonalization with overlap

---- Real-time Memory Report at c_bands before calling an iterative solver
           207 MiB given to the printing process from OS
             0 MiB allocation reported by mallinfo(arena+hblkhd)
        143565 MiB available memory on the node where the printing process lives
------------------
     ethr =  1.00E-13,  avg # of iterations =  1.0

     total cpu time spent up to now is        5.1 secs

     End of self-consistent calculation

          k = 0.0000 0.0000 0.0000 (  4477 PWs)   bands (ev):

    -6.8236   2.5944   2.5944   3.6540   4.7245   5.6488   6.2317   6.2317

     occupation numbers 
     1.0000   1.0000   1.0000   1.0000   0.0000   0.0000   0.0000   0.0000

          k = 0.0884-0.0884 0.0884 (  4417 PWs)   bands (ev):

    -6.6631   1.1639   2.4146   4.4269   4.7425   5.5108   6.6617   6.7207

     occupation numbers 
     1.0000   1.0000   1.0000   0.0000   0.0000   0.0000   0.0000   0.0000

          k = 0.1768-0.1768 0.1768 (  4405 PWs)   bands (ev):

    -6.1946  -0.6297   2.0740   4.0898   4.6665   5.7595   7.6321   8.0554

     occupation numbers 
     1.0000   1.0000   1.0000   0.0200   0.0000   0.0000   0.0000   0.0000

          k = 0.2652-0.2652 0.2652 (  4416 PWs)   bands (ev):

    -5.4898  -2.1823   1.8097   3.8748   4.3252   5.6805   8.2158   9.7663

     occupation numbers 
     1.0000   1.0000   1.0000   1.0000   0.0000   0.0000   0.0000   0.0000

          k =-0.3536 0.3536-0.3536 (  4398 PWs)   bands (ev):

    -4.9812  -2.9804   1.7146   3.8106   4.1958   5.5854   8.2277  10.3643

     occupation numbers 
     1.0000   1.0000   1.0000   1.0000   0.0000   0.0000   0.0000   0.0000

          k = 0.0000 0.0000 0.1768 (  4420 PWs)   bands (ev):

    -6.6202   1.2419   2.2176   3.7768   4.6976   5.9277   6.7831   6.8692

     occupation numbers 
     1.0000   1.0000   1.0000   1.0000   0.0000   0.0000   0.0000   0.0000

          k = 0.0884-0.0884 0.2652 (  4415 PWs)   bands (ev):

    -6.2636  -0.1095   1.8215   3.3534   5.3114   5.7857   7.0868   7.9193

     occupation numbers 
     1.0000   1.0000   1.0000   1.0000   0.0000   0.0000   0.0000   0.0000

          k = 0.1768-0.1768 0.3536 (  4414 PWs)   bands (ev):

    -5.6321  -1.6671   1.3791   3.1473   5.3532   6.0241   7.6265   8.3967

     occupation numbers 
     1.0000   1.0000   1.0000   1.0000   0.0000   0.0000   0.0000   0.0000

          k =-0.4419 0.4419-0.2652 (  4409 PWs)   bands (ev):

    -4.9338  -2.8474   1.1024   3.2004   5.1148   5.9973   8.1994   9.2061

     occupation numbers 
     1.0000   1.0000   1.0000   1.0000   0.0000   0.0000   0.0000   0.0000

          k =-0.3536 0.3536-0.1768 (  4394 PWs)   bands (ev):

    -5.0840  -2.6580   1.0649   3.5089   5.0620   5.9311   8.1772   9.6258

     occupation numbers 
     1.0000   1.0000   1.0000   1.0000   0.0000   0.0000   0.0000   0.0000

          k =-0.2652 0.2652-0.0884 (  4406 PWs)   bands (ev):

    -5.8189  -1.3930   1.3059   4.0394   5.1168   5.9027   7.6205   8.6958

     occupation numbers 
     1.0000   1.0000   1.0000   0.7596   0.0000   0.0000   0.0000   0.0000

          k =-0.1768 0.1768 0.0000 (  4415 PWs)   bands (ev):

    -6.3880   0.0396   1.8481   4.7061   5.0035   5.5331   6.7099   7.9055

     occupation numbers 
     1.0000   1.0000   1.0000   0.0000   0.0000   0.0000   0.0000   0.0000

          k = 0.0000 0.0000 0.3536 (  4432 PWs)   bands (ev):

    -6.0227  -0.4684   1.5641   2.7968   4.4302   6.1356   7.9063   8.2994

     occupation numbers 
     1.0000   1.0000   1.0000   1.0000   0.0000   0.0000   0.0000   0.0000

          k = 0.0884-0.0884 0.4419 (  4411 PWs)   bands (ev):

    -5.4930  -1.5212   1.0027   2.5199   4.8802   5.8264   7.9085   9.3165

     occupation numbers 
     1.0000   1.0000   1.0000   1.0000   0.0000   0.0000   0.0000   0.0000

          k =-0.5303 0.5303-0.1768 (  4404 PWs)   bands (ev):

    -4.7620  -2.6704   0.4065   2.5329   5.2350   6.7852   7.6652   9.1061

     occupation numbers 
     1.0000   1.0000   1.0000   1.0000   0.0000   0.0000   0.0000   0.0000

          k =-0.4419 0.4419-0.0884 (  4399 PWs)   bands (ev):

    -4.4641  -3.1094   0.1794   2.8374   5.3217   7.3766   8.6782   8.7662

     occupation numbers 
     1.0000   1.0000   1.0000   1.0000   0.0000   0.0000   0.0000   0.0000

          k =-0.3536 0.3536 0.0000 (  4403 PWs)   bands (ev):

    -5.1711  -2.2860   0.4653   3.3941   5.4195   7.0570   7.7957   8.6468

     occupation numbers 
     1.0000   1.0000   1.0000   1.0000   0.0000   0.0000   0.0000   0.0000

          k = 0.0000 0.0000 0.5303 (  4380 PWs)   bands (ev):

    -5.0827  -2.0850   1.0810   2.1539   4.0397   5.2018   9.8457  10.0631

     occupation numbers 
     1.0000   1.0000   1.0000   1.0000   0.7552   0.0000   0.0000   0.0000

          k =-0.6187 0.6187-0.0884 (  4393 PWs)   bands (ev):

    -4.4501  -2.8950   0.5283   2.0874   4.7252   5.0530   9.7231  10.6468

     occupation numbers 
     1.0000   1.0000   1.0000   1.0000   0.0000   0.0000   0.0000   0.0000

          k =-0.5303 0.5303 0.0000 (  4392 PWs)   bands (ev):

    -3.7238  -3.7064  -0.0052   2.3247   5.0546   6.6015   9.1559   9.8650

     occupation numbers 
     1.0000   1.0000   1.0000   1.0000   0.0000   0.0000   0.0000   0.0000

          k = 0.0000 0.0000-0.7071 (  4360 PWs)   bands (ev):

    -4.2084  -3.1871   0.9094   1.9336   3.9343   4.7678  11.3523  11.5531

     occupation numbers 
     1.0000   1.0000   1.0000   1.0000   1.0000   0.0000   0.0000   0.0000

          k = 0.1768 0.0000 0.3536 (  4423 PWs)   bands (ev):

    -5.9222  -0.4529   1.5527   1.9236   5.2207   6.3280   7.1159   8.0630

     occupation numbers 
     1.0000   1.0000   1.0000   1.0000   0.0000   0.0000   0.0000   0.0000

          k =-0.4419 0.6187-0.2652 (  4403 PWs)   bands (ev):

    -5.2613  -1.9437   1.1270   1.8700   5.7306   6.4114   7.3057   9.2203

     occupation numbers 
     1.0000   1.0000   1.0000   1.0000   0.0000   0.0000   0.0000   0.0000

          k =-0.3536 0.5303-0.1768 (  4392 PWs)   bands (ev):

    -4.6574  -2.9469   0.8447   2.1472   5.5363   6.2998   8.9188   9.2278

     occupation numbers 
     1.0000   1.0000   1.0000   1.0000   0.0000   0.0000   0.0000   0.0000

          k =-0.5303 0.7071-0.1768 (  4402 PWs)   bands (ev):

    -5.0783  -1.8982   0.8385   1.4797   5.0533   6.0884   7.6783   9.9706

     occupation numbers 
     1.0000   1.0000   1.0000   1.0000   0.0000   0.0000   0.0000   0.0000

          k =-0.4419 0.6187-0.0884 (  4393 PWs)   bands (ev):

    -4.3717  -2.9552   0.2536   1.7392   5.9428   6.6741   7.3862   9.8528

     occupation numbers 
     1.0000   1.0000   1.0000   1.0000   0.0000   0.0000   0.0000   0.0000

          k =-0.3536 0.5303 0.0000 (  4405 PWs)   bands (ev):

    -4.3189  -3.1587   0.0916   2.3251   5.8798   7.1076   8.3744   8.9813

     occupation numbers 
     1.0000   1.0000   1.0000   1.0000   0.0000   0.0000   0.0000   0.0000

          k = 0.1768 0.0000-0.7071 (  4372 PWs)   bands (ev):

    -4.1794  -3.1532   0.5360   1.5775   4.8600   5.6461   9.4605  10.4526

     occupation numbers 
     1.0000   1.0000   1.0000   1.0000   0.0000   0.0000   0.0000   0.0000

          k = 0.3536 0.0000-0.7071 (  4388 PWs)   bands (ev):

    -4.1493  -3.1175   0.2462   1.3008   6.5976   6.7046   7.4585   8.9146

     occupation numbers 
     1.0000   1.0000   1.0000   1.0000   0.0000   0.0000   0.0000   0.0000

          k = 0.0884 0.0884 0.0884 (  4417 PWs)   bands (ev):

    -6.6972   2.5042   2.5042   2.8478   3.7785   6.3138   6.3138   7.1011

     occupation numbers 
     1.0000   1.0000   1.0000   1.0000   1.0000   0.0000   0.0000   0.0000

          k = 0.1768 0.1768 0.1768 (  4405 PWs)   bands (ev):

    -6.3503   1.1007   2.3160   2.3160   3.4026   6.3822   6.3822   8.6116

     occupation numbers 
     1.0000   1.0000   1.0000   1.0000   1.0000   0.0000   0.0000   0.0000

          k = 0.2652 0.2652 0.2652 (  4416 PWs)   bands (ev):

    -5.9143  -0.2575   2.1581   2.1581   3.1487   6.3083   6.3083   9.5500

     occupation numbers 
     1.0000   1.0000   1.0000   1.0000   1.0000   0.0000   0.0000   0.0000

          k =-0.3536-0.3536-0.3536 (  4398 PWs)   bands (ev):

    -5.6902  -0.7961   2.0994   2.0994   3.0575   6.2504   6.2504   9.6884

     occupation numbers 
     1.0000   1.0000   1.0000   1.0000   1.0000   0.0000   0.0000   0.0000

          k =-0.0884-0.0884 0.2652 (  4415 PWs)   bands (ev):

    -6.2304  -0.3932   1.8450   3.8557   4.9039   5.8101   7.8292   7.9321

     occupation numbers 
     1.0000   1.0000   1.0000   1.0000   0.0000   0.0000   0.0000   0.0000

          k = 0.0884 0.0884 0.2652 (  4415 PWs)   bands (ev):

    -6.3394   0.9075   1.9805   2.1534   4.5151   6.2609   7.0508   7.5452

     occupation numbers 
     1.0000   1.0000   1.0000   1.0000   0.0000   0.0000   0.0000   0.0000

          k =-0.1768-0.1768 0.3536 (  4414 PWs)   bands (ev):

    -5.5726  -1.9025   1.6057   3.1944   5.0307   5.7090   8.7065   9.3183

     occupation numbers 
     1.0000   1.0000   1.0000   1.0000   0.0000   0.0000   0.0000   0.0000

          k = 0.1768 0.1768 0.3536 (  4414 PWs)   bands (ev):

    -5.9106  -0.0149   1.2955   1.8403   4.3164   6.2739   6.9876   8.4042

     occupation numbers 
     1.0000   1.0000   1.0000   1.0000   0.0000   0.0000   0.0000   0.0000

          k = 0.4419 0.4419-0.2652 (  4409 PWs)   bands (ev):

    -4.9205  -2.9079   1.5712   2.6555   4.8835   5.9504   8.6725  10.5161

     occupation numbers 
     1.0000   1.0000   1.0000   1.0000   0.0000   0.0000   0.0000   0.0000

          k =-0.4419-0.4419-0.2652 (  4409 PWs)   bands (ev):

    -5.5760  -0.7584   0.9795   1.8525   4.1909   6.2283   6.8096   9.3483

     occupation numbers 
     1.0000   1.0000   1.0000   1.0000   0.0000   0.0000   0.0000   0.0000

          k = 0.3536 0.3536-0.1768 (  4394 PWs)   bands (ev):

    -5.2066  -2.4250   1.7430   2.3631   4.9186   6.2616   8.4925   9.3664

     occupation numbers 
     1.0000   1.0000   1.0000   1.0000   0.0000   0.0000   0.0000   0.0000

          k =-0.3536-0.3536-0.1768 (  4394 PWs)   bands (ev):

    -5.6558  -0.5903   0.9180   2.0068   4.2128   6.3376   6.7052   9.3643

     occupation numbers 
     1.0000   1.0000   1.0000   1.0000   0.0000   0.0000   0.0000   0.0000

          k = 0.2652 0.2652-0.0884 (  4406 PWs)   bands (ev):

    -5.9250  -0.9504   2.0722   2.3470   5.0633   6.4868   7.6917   7.9478

     occupation numbers 
     1.0000   1.0000   1.0000   1.0000   0.0000   0.0000   0.0000   0.0000

          k =-0.2652-0.2652-0.0884 (  4406 PWs)   bands (ev):

    -6.0614   0.2737   1.2654   2.2371   4.3845   6.5056   6.6894   8.4618

     occupation numbers 
     1.0000   1.0000   1.0000   1.0000   0.0000   0.0000   0.0000   0.0000

          k = 0.1768 0.1768 0.0000 (  4415 PWs)   bands (ev):

    -6.4576   0.8526   2.4196   2.5981   4.6289   6.2937   6.6475   7.5542

     occupation numbers 
     1.0000   1.0000   1.0000   1.0000   0.0000   0.0000   0.0000   0.0000

          k =-0.0884-0.0884 0.4419 (  4411 PWs)   bands (ev):

    -5.4262  -1.8173   1.3012   2.6201   4.3369   5.8976   9.2481   9.5612

     occupation numbers 
     1.0000   1.0000   1.0000   1.0000   0.0000   0.0000   0.0000   0.0000

          k = 0.0884 0.0884 0.4419 (  4411 PWs)   bands (ev):

    -5.6295  -0.8770   1.3900   1.5171   4.4375   6.4647   7.6954   8.3733

     occupation numbers 
     1.0000   1.0000   1.0000   1.0000   0.0000   0.0000   0.0000   0.0000

          k = 0.5303 0.5303-0.1768 (  4404 PWs)   bands (ev):

    -4.7282  -2.8303   1.2677   1.8260   4.4172   6.7041   9.4778   9.8289

     occupation numbers 
     1.0000   1.0000   1.0000   1.0000   0.0000   0.0000   0.0000   0.0000

          k =-0.5303-0.5303-0.1768 (  4404 PWs)   bands (ev):

    -5.2338  -1.3423   0.6324   1.3920   4.4212   7.2870   7.8019   8.1956

     occupation numbers 
     1.0000   1.0000   1.0000   1.0000   0.0000   0.0000   0.0000   0.0000

          k = 0.4419 0.4419-0.0884 (  4399 PWs)   bands (ev):

    -4.8200  -2.5728   1.2225   1.4669   4.6054   7.4549   9.1321   9.3648

     occupation numbers 
     1.0000   1.0000   1.0000   1.0000   0.0000   0.0000   0.0000   0.0000

          k =-0.4419-0.4419-0.0884 (  4399 PWs)   bands (ev):

    -5.1696  -1.4587   0.3893   1.5672   4.5565   7.3304   8.0023   8.6654

     occupation numbers 
     1.0000   1.0000   1.0000   1.0000   0.0000   0.0000   0.0000   0.0000

          k = 0.3536 0.3536 0.0000 (  4403 PWs)   bands (ev):

    -5.5069  -1.2358   0.9791   1.8447   4.8541   7.3532   7.8745   7.9997

     occupation numbers 
     1.0000   1.0000   1.0000   1.0000   0.0000   0.0000   0.0000   0.0000

          k = 0.6187 0.6187-0.0884 (  4393 PWs)   bands (ev):

    -4.4209  -2.9902   1.0076   1.7341   4.0144   5.5784  10.7187  11.1302

     occupation numbers 
     1.0000   1.0000   1.0000   1.0000   0.9810   0.0000   0.0000   0.0000

          k =-0.6187-0.6187-0.0884 (  4393 PWs)   bands (ev):

    -4.6827  -2.4830   1.0371   1.3554   4.0811   5.7146   9.6596  10.0312

     occupation numbers 
     1.0000   1.0000   1.0000   1.0000   0.0579   0.0000   0.0000   0.0000

          k = 0.5303 0.5303 0.0000 (  4392 PWs)   bands (ev):

    -4.5493  -2.6531   0.8785   1.1841   4.2277   7.0714   9.4294   9.8110

     occupation numbers 
     1.0000   1.0000   1.0000   1.0000   0.0000   0.0000   0.0000   0.0000

          k = 0.0000-0.1768 0.3536 (  4423 PWs)   bands (ev):

    -5.7691  -1.3057   1.1497   3.4262   5.1570   6.0385   7.8921   8.4842

     occupation numbers 
     1.0000   1.0000   1.0000   1.0000   0.0000   0.0000   0.0000   0.0000

          k = 0.6187 0.4419-0.2652 (  4403 PWs)   bands (ev):

    -5.0517  -2.4855   0.8276   2.7307   5.4069   6.1391   8.6927   9.5057

     occupation numbers 
     1.0000   1.0000   1.0000   1.0000   0.0000   0.0000   0.0000   0.0000

          k =-0.6187-0.4419-0.2652 (  4403 PWs)   bands (ev):

    -5.4925  -0.8999   0.7101   1.5382   5.0955   6.2783   7.9891   8.0630

     occupation numbers 
     1.0000   1.0000   1.0000   1.0000   0.0000   0.0000   0.0000   0.0000

          k = 0.2652 0.6187-0.4419 (  4403 PWs)   bands (ev):

    -5.0620  -2.4069   0.5011   3.0780   5.4266   6.9944   7.8828   8.0980

     occupation numbers 
     1.0000   1.0000   1.0000   1.0000   0.0000   0.0000   0.0000   0.0000

          k =-0.5303-0.3536-0.1768 (  4392 PWs)   bands (ev):

    -5.2709  -1.1721   0.4137   1.4352   5.0421   6.1621   8.0233   8.8403

     occupation numbers 
     1.0000   1.0000   1.0000   1.0000   0.0000   0.0000   0.0000   0.0000

          k = 0.1768 0.5303-0.3536 (  4392 PWs)   bands (ev):

    -4.5063  -3.1263   0.2888   2.9393   5.4127   7.5385   7.8762   8.8441

     occupation numbers 
     1.0000   1.0000   1.0000   1.0000   0.0000   0.0000   0.0000   0.0000

          k = 0.7071 0.5303-0.1768 (  4402 PWs)   bands (ev):

    -4.8212  -2.5626   0.6580   2.2643   4.8881   5.8203   9.1492   9.8366

     occupation numbers 
     1.0000   1.0000   1.0000   1.0000   0.0000   0.0000   0.0000   0.0000

          k = 0.6187 0.4419-0.0884 (  4393 PWs)   bands (ev):

    -4.3367  -3.0587   0.6401   1.4690   5.1027   6.8560   8.9293   9.4257

     occupation numbers 
     1.0000   1.0000   1.0000   1.0000   0.0000   0.0000   0.0000   0.0000

          k =-0.6187-0.4419-0.0884 (  4393 PWs)   bands (ev):

    -4.7659  -2.1874   0.7464   0.8705   5.1331   7.0551   7.6613   9.9778

     occupation numbers 
     1.0000   1.0000   1.0000   1.0000   0.0000   0.0000   0.0000   0.0000

          k = 0.0884 0.6187-0.4419 (  4393 PWs)   bands (ev):

    -4.0568  -3.3799   0.0572   2.1428   5.6466   6.7709   8.7150   9.0587

     occupation numbers 
     1.0000   1.0000   1.0000   1.0000   0.0000   0.0000   0.0000   0.0000

          k = 0.5303 0.3536 0.0000 (  4405 PWs)   bands (ev):

    -4.8668  -2.1607   0.7101   1.1396   5.3837   7.1445   7.6603   9.8480

     occupation numbers 
     1.0000   1.0000   1.0000   1.0000   0.0000   0.0000   0.0000   0.0000

     the Fermi energy is     4.0523 ev

!    total energy              =     -15.68079192 Ry
     estimated scf accuracy    <          8.8E-15 Ry
     smearing contrib. (-TS)   =      -0.00003613 Ry
     internal energy E=F+TS    =     -15.68075579 Ry

     convergence has been achieved in   9 iterations

     Forces acting on atoms (cartesian axes, Ry/au):

     atom    1 type  1   force =     0.03327800    0.03327800    0.03327800
     atom    2 type  1   force =    -0.03327800   -0.03327800   -0.03327800
     The non-local contrib.  to forces
     atom    1 type  1   force =     0.01716732    0.01716732    0.01716732
     atom    2 type  1   force =    -0.01716669   -0.01716669   -0.01716669
     The ionic contribution  to forces
     atom    1 type  1   force =     0.05248081    0.05248081    0.05248081
     atom    2 type  1   force =    -0.05248081   -0.05248081   -0.05248081
     The local contribution  to forces
     atom    1 type  1   force =    -0.03637003   -0.03637003   -0.03637003
     atom    2 type  1   force =     0.03636962    0.03636962    0.03636962
     The core correction contribution to forces
     atom    1 type  1   force =     0.00000000    0.00000000    0.00000000
     atom    2 type  1   force =     0.00000000    0.00000000    0.00000000
     The Hubbard contrib.    to forces
     atom    1 type  1   force =     0.00000000    0.00000000    0.00000000
     atom    2 type  1   force =     0.00000000    0.00000000    0.00000000
     The SCF correction term to forces
     atom    1 type  1   force =     0.00000002    0.00000002    0.00000002
     atom    2 type  1   force =    -0.00000002   -0.00000002   -0.00000002

     Total force =     0.081514     Total SCF correction =     0.000000


     Computing stress (Cartesian axis) and pressure

          total   stress  (Ry/bohr**3)                   (kbar)     P=     -111.21
  -0.00075600   0.00002406   0.00002406         -111.21        3.54        3.54
   0.00002406  -0.00075600   0.00002406            3.54     -111.21        3.54
   0.00002406   0.00002406  -0.00075600            3.54        3.54     -111.21

     kinetic stress (kbar)   1494.95     48.87     48.87
                               48.87   1494.95     48.87
                               48.87     48.87   1494.95

     local   stress (kbar)  -1173.22    504.96    504.96
                              504.96  -1173.22    504.96
                              504.96    504.96  -1173.22

     nonloc. stress (kbar)   1978.02    -40.84    -40.84
                              -40.84   1978.02    -40.84
                              -40.84    -40.84   1978.02

     hartree stress (kbar)    184.22    -76.19    -76.19
                              -76.19    184.22    -76.19
                              -76.19    -76.19    184.22

     exc-cor stress (kbar)   -559.04     -1.11     -1.11
                               -1.11   -559.04     -1.11
                               -1.11     -1.11   -559.04

     corecor stress (kbar)      0.00      0.00      0.00
                                0.00      0.00      0.00
                                0.00      0.00      0.00

     ewald   stress (kbar)  -2036.15   -432.15   -432.15
                             -432.15  -2036.15   -432.15
                             -432.15   -432.15  -2036.15

     hubbard stress (kbar)      0.00      0.00      0.00
                                0.00      0.00      0.00
                                0.00      0.00      0.00

     DFT-D   stress (kbar)      0.00      0.00      0.00
                                0.00      0.00      0.00
                                0.00      0.00      0.00

     XDM     stress (kbar)      0.00      0.00      0.00
                                0.00      0.00      0.00
                                0.00      0.00      0.00

     dft-nl  stress (kbar)      0.00      0.00      0.00
                                0.00      0.00      0.00
                                0.00      0.00      0.00

     TS-vdW  stress (kbar)      0.00      0.00      0.00
                                0.00      0.00      0.00
                                0.00      0.00      0.00

     MDB     stress (kbar)      0.00      0.00      0.00
                                0.00      0.00      0.00
                                0.00      0.00      0.00

     3D-RISM stress (kbar)      0.00      0.00      0.00
                                0.00      0.00      0.00
                                0.00      0.00      0.00


     Entering Dynamics:    iteration =     2

     <vel(dt)|acc(dt)> =   1.00000000

ATOMIC_POSITIONS (crystal)
Si            0.0082825952        0.0082825952        0.0082825952
Si            0.2917174048        0.2917174048        0.2917174048



     Writing config-only to output data dir ./wavefunc/Si.save/
     NEW-OLD atomic charge density approx. for the potential

     total cpu time spent up to now is        5.2 secs

     Self-consistent Calculation

     iteration #  1     ecut=    80.00 Ry     beta= 0.70
     Davidson diagonalization with overlap

---- Real-time Memory Report at c_bands before calling an iterative solver
           209 MiB given to the printing process from OS
             0 MiB allocation reported by mallinfo(arena+hblkhd)
        143565 MiB available memory on the node where the printing process lives
------------------
     ethr =  1.00E-06,  avg # of iterations =  8.4

     total cpu time spent up to now is        5.7 secs

     total energy              =     -15.69366094 Ry
     estimated scf accuracy    <       0.00020059 Ry

     iteration #  2     ecut=    80.00 Ry     beta= 0.70
     Davidson diagonalization with overlap

---- Real-time Memory Report at c_bands before calling an iterative solver
           209 MiB given to the printing process from OS
             0 MiB allocation reported by mallinfo(arena+hblkhd)
        143558 MiB available memory on the node where the printing process lives
------------------
     ethr =  2.51E-06,  avg # of iterations =  1.0

     total cpu time spent up to now is        5.9 secs

     total energy              =     -15.69367947 Ry
     estimated scf accuracy    <       0.00001642 Ry

     iteration #  3     ecut=    80.00 Ry     beta= 0.70
     Davidson diagonalization with overlap

---- Real-time Memory Report at c_bands before calling an iterative solver
           209 MiB given to the printing process from OS
             0 MiB allocation reported by mallinfo(arena+hblkhd)
        143558 MiB available memory on the node where the printing process lives
------------------
     ethr =  2.05E-07,  avg # of iterations =  1.2

     total cpu time spent up to now is        6.1 secs

     total energy              =     -15.69368109 Ry
     estimated scf accuracy    <       0.00000013 Ry

     iteration #  4     ecut=    80.00 Ry     beta= 0.70
     Davidson diagonalization with overlap

---- Real-time Memory Report at c_bands before calling an iterative solver
           209 MiB given to the printing process from OS
             0 MiB allocation reported by mallinfo(arena+hblkhd)
        143558 MiB available memory on the node where the printing process lives
------------------
     ethr =  1.64E-09,  avg # of iterations =  3.2

     total cpu time spent up to now is        6.3 secs

     total energy              =     -15.69368124 Ry
     estimated scf accuracy    <          9.4E-09 Ry

     iteration #  5     ecut=    80.00 Ry     beta= 0.70
     Davidson diagonalization with overlap

---- Real-time Memory Report at c_bands before calling an iterative solver
           209 MiB given to the printing process from OS
             0 MiB allocation reported by mallinfo(arena+hblkhd)
        143558 MiB available memory on the node where the printing process lives
------------------
     ethr =  1.17E-10,  avg # of iterations =  2.1

     total cpu time spent up to now is        6.5 secs

     total energy              =     -15.69368125 Ry
     estimated scf accuracy    <          2.2E-10 Ry

     iteration #  6     ecut=    80.00 Ry     beta= 0.70
     Davidson diagonalization with overlap

---- Real-time Memory Report at c_bands before calling an iterative solver
           209 MiB given to the printing process from OS
             0 MiB allocation reported by mallinfo(arena+hblkhd)
        143558 MiB available memory on the node where the printing process lives
------------------
     ethr =  2.80E-12,  avg # of iterations =  3.0

     total cpu time spent up to now is        6.8 secs

     total energy              =     -15.69368125 Ry
     estimated scf accuracy    <          1.9E-11 Ry

     iteration #  7     ecut=    80.00 Ry     beta= 0.70
     Davidson diagonalization with overlap

---- Real-time Memory Report at c_bands before calling an iterative solver
           209 MiB given to the printing process from OS
             0 MiB allocation reported by mallinfo(arena+hblkhd)
        143558 MiB available memory on the node where the printing process lives
------------------
     ethr =  2.34E-13,  avg # of iterations =  2.6

     total cpu time spent up to now is        7.0 secs

     total energy              =     -15.69368125 Ry
     estimated scf accuracy    <          3.9E-13 Ry

     iteration #  8     ecut=    80.00 Ry     beta= 0.70
     Davidson diagonalization with overlap

---- Real-time Memory Report at c_bands before calling an iterative solver
           209 MiB given to the printing process from OS
             0 MiB allocation reported by mallinfo(arena+hblkhd)
        143567 MiB available memory on the node where the printing process lives
------------------
     ethr =  1.00E-13,  avg # of iterations =  1.0

     total cpu time spent up to now is        7.2 secs

     total energy              =     -15.69368125 Ry
     estimated scf accuracy    <          2.5E-14 Ry

     iteration #  9     ecut=    80.00 Ry     beta= 0.70
     Davidson diagonalization with overlap

---- Real-time Memory Report at c_bands before calling an iterative solver
           209 MiB given to the printing process from OS
             0 MiB allocation reported by mallinfo(arena+hblkhd)
        143554 MiB available memory on the node where the printing process lives
------------------
     ethr =  1.00E-13,  avg # of iterations =  1.0

     total cpu time spent up to now is        7.3 secs

     End of self-consistent calculation

          k = 0.0000 0.0000 0.0000 (  4477 PWs)   bands (ev):

    -6.7699   2.7785   2.7785   3.7206   4.9446   5.1160   6.1909   6.1909

     occupation numbers 
     1.0000   1.0000   1.0000   1.0000   0.0000   0.0000   0.0000   0.0000

          k = 0.0884-0.0884 0.0884 (  4417 PWs)   bands (ev):

    -6.6099   1.3046   2.5927   4.3133   4.8019   5.4392   6.6010   6.6596

     occupation numbers 
     1.0000   1.0000   1.0000   0.0000   0.0000   0.0000   0.0000   0.0000

          k = 0.1768-0.1768 0.1768 (  4405 PWs)   bands (ev):

    -6.1439  -0.5053   2.2452   3.8842   4.6187   5.9059   7.4632   8.1310

     occupation numbers 
     1.0000   1.0000   1.0000   1.0000   0.0000   0.0000   0.0000   0.0000

          k = 0.2652-0.2652 0.2652 (  4416 PWs)   bands (ev):

    -5.4475  -2.0594   1.9783   3.6062   4.3021   5.9201   7.9194   9.9024

     occupation numbers 
[...]

          k =-0.3536 0.3536 0.0000 (  4403 PWs)   bands (ev):

    -5.1407  -1.6055   0.7683   2.4807   5.4831   7.6258   7.8415   8.2991

     occupation numbers 
     1.0000   1.0000   1.0000   1.0000   0.0000   0.0000   0.0000   0.0000

          k = 0.0000 0.0000 0.5303 (  4380 PWs)   bands (ev):

    -4.8456  -1.9410   1.5498   1.5498   4.4594   5.2706  10.0132  10.0132

     occupation numbers 
     1.0000   1.0000   1.0000   1.0000   0.0000   0.0000   0.0000   0.0000

          k =-0.6187 0.6187-0.0884 (  4393 PWs)   bands (ev):

    -4.1799  -2.7772   0.9990   1.4865   4.7139   5.5328  10.0760  10.2977

     occupation numbers 
     1.0000   1.0000   1.0000   1.0000   0.0000   0.0000   0.0000   0.0000

          k =-0.5303 0.5303 0.0000 (  4392 PWs)   bands (ev):

    -3.9165  -3.0378   0.4187   1.6768   4.9187   7.2055   9.6332   9.6989

     occupation numbers 
     1.0000   1.0000   1.0000   1.0000   0.0000   0.0000   0.0000   0.0000

          k = 0.0000 0.0000-0.7071 (  4360 PWs)   bands (ev):

    -3.5203  -3.5203   1.3575   1.3576   4.6018   4.6018  11.2164  11.2164

     occupation numbers 
     1.0000   1.0000   1.0000   1.0000   0.0000   0.0000   0.0000   0.0000

          k = 0.1768 0.0000 0.3536 (  4423 PWs)   bands (ev):

    -5.6609  -0.6860   1.5244   2.4059   5.7918   6.0842   7.6689   8.0966

     occupation numbers 
     1.0000   1.0000   1.0000   1.0000   0.0000   0.0000   0.0000   0.0000

          k =-0.4419 0.6187-0.2652 (  4403 PWs)   bands (ev):

    -5.0134  -1.8301   0.9994   2.0679   5.8272   6.6300   7.8984   8.6274

     occupation numbers 
     1.0000   1.0000   1.0000   1.0000   0.0000   0.0000   0.0000   0.0000

          k =-0.3536 0.5303-0.1768 (  4392 PWs)   bands (ev):

    -4.5761  -2.4688   0.8527   1.9150   5.7656   6.6765   8.3938   9.5338

     occupation numbers 
     1.0000   1.0000   1.0000   1.0000   0.0000   0.0000   0.0000   0.0000

          k =-0.5303 0.7071-0.1768 (  4402 PWs)   bands (ev):

    -4.7121  -2.1059   1.0414   1.4930   5.4471   6.0179   8.2935   9.9465

     occupation numbers 
     1.0000   1.0000   1.0000   1.0000   0.0000   0.0000   0.0000   0.0000

          k =-0.4419 0.6187-0.0884 (  4393 PWs)   bands (ev):

    -4.0966  -2.8285   0.5636   1.3531   5.7808   7.3029   7.9646   9.5301

     occupation numbers 
     1.0000   1.0000   1.0000   1.0000   0.0000   0.0000   0.0000   0.0000

          k =-0.3536 0.5303 0.0000 (  4405 PWs)   bands (ev):

    -4.3594  -2.5360   0.4498   1.6163   6.0463   7.4718   7.9739   9.2970

     occupation numbers 
     1.0000   1.0000   1.0000   1.0000   0.0000   0.0000   0.0000   0.0000

          k = 0.1768 0.0000-0.7071 (  4372 PWs)   bands (ev):

    -3.4873  -3.4873   1.0162   1.0162   5.5170   5.5170   9.8941   9.8941

     occupation numbers 
     1.0000   1.0000   1.0000   1.0000   0.0000   0.0000   0.0000   0.0000

          k = 0.3536 0.0000-0.7071 (  4388 PWs)   bands (ev):

    -3.4527  -3.4527   0.7441   0.7441   7.3547   7.3547   7.6987   7.6987

     occupation numbers 
     1.0000   1.0000   1.0000   1.0000   0.0000   0.0000   0.0000   0.0000

          k = 0.0884 0.0884 0.0884 (  4417 PWs)   bands (ev):

    -6.5115   1.7421   3.2815   3.2815   4.6611   6.1887   6.1887   6.5379

     occupation numbers 
     1.0000   1.0000   1.0000   1.0000   0.0000   0.0000   0.0000   0.0000

          k = 0.1768 0.1768 0.1768 (  4405 PWs)   bands (ev):

    -6.0627  -0.1110   2.9145   2.9145   4.4373   6.6727   6.6727   8.3144

     occupation numbers 
     1.0000   1.0000   1.0000   1.0000   0.0000   0.0000   0.0000   0.0000

          k = 0.2652 0.2652 0.2652 (  4416 PWs)   bands (ev):

    -5.4153  -1.6448   2.6467   2.6467   4.1409   6.8168   6.8168  10.1236

     occupation numbers 
     1.0000   1.0000   1.0000   1.0000   0.0000   0.0000   0.0000   0.0000

          k =-0.3536-0.3536-0.3536 (  4398 PWs)   bands (ev):

    -4.9964  -2.3652   2.5528   2.5528   4.0295   6.8013   6.8013  10.6321

     occupation numbers 
     1.0000   1.0000   1.0000   1.0000   0.0000   0.0000   0.0000   0.0000

          k =-0.0884-0.0884 0.2652 (  4415 PWs)   bands (ev):

    -6.1033   0.2786   2.4868   2.5329   5.3902   5.9378   7.3309   7.6914

     occupation numbers 
     1.0000   1.0000   1.0000   1.0000   0.0000   0.0000   0.0000   0.0000

          k = 0.0884 0.0884 0.2652 (  4415 PWs)   bands (ev):

    -6.1033   0.2786   2.4868   2.5329   5.3902   5.9378   7.3309   7.6914

     occupation numbers 
     1.0000   1.0000   1.0000   1.0000   0.0000   0.0000   0.0000   0.0000

          k =-0.1768-0.1768 0.3536 (  4414 PWs)   bands (ev):

    -5.5011  -1.2468   1.9912   2.3090   5.1390   6.5115   7.5168   8.4658

     occupation numbers 
     1.0000   1.0000   1.0000   1.0000   0.0000   0.0000   0.0000   0.0000

          k = 0.1768 0.1768 0.3536 (  4414 PWs)   bands (ev):

    -5.5011  -1.2468   1.9912   2.3090   5.1390   6.5115   7.5168   8.4658

     occupation numbers 
     1.0000   1.0000   1.0000   1.0000   0.0000   0.0000   0.0000   0.0000

          k = 0.4419 0.4419-0.2652 (  4409 PWs)   bands (ev):

    -4.9129  -2.2868   1.6486   2.3064   4.9638   6.7258   7.3492   9.8512

     occupation numbers 
     1.0000   1.0000   1.0000   1.0000   0.0000   0.0000   0.0000   0.0000

          k =-0.4419-0.4419-0.2652 (  4409 PWs)   bands (ev):

    -4.9129  -2.2868   1.6486   2.3064   4.9638   6.7258   7.3492   9.8512

     occupation numbers 
     1.0000   1.0000   1.0000   1.0000   0.0000   0.0000   0.0000   0.0000

          k = 0.3536 0.3536-0.1768 (  4394 PWs)   bands (ev):

    -5.0727  -2.0320   1.5462   2.5159   4.9820   6.9021   7.1406   9.9730

     occupation numbers 
     1.0000   1.0000   1.0000   1.0000   0.0000   0.0000   0.0000   0.0000

          k =-0.3536-0.3536-0.1768 (  4394 PWs)   bands (ev):

    -5.0727  -2.0320   1.5462   2.5159   4.9820   6.9021   7.1406   9.9730

     occupation numbers 
     1.0000   1.0000   1.0000   1.0000   0.0000   0.0000   0.0000   0.0000

          k = 0.2652 0.2652-0.0884 (  4406 PWs)   bands (ev):

    -5.7260  -0.7618   1.7381   2.8803   5.1642   6.8273   6.9689   8.4985

     occupation numbers 
     1.0000   1.0000   1.0000   1.0000   0.0000   0.0000   0.0000   0.0000

          k =-0.2652-0.2652-0.0884 (  4406 PWs)   bands (ev):

    -5.7260  -0.7618   1.7381   2.8803   5.1642   6.8273   6.9689   8.4985

     occupation numbers 
     1.0000   1.0000   1.0000   1.0000   0.0000   0.0000   0.0000   0.0000

          k = 0.1768 0.1768 0.0000 (  4415 PWs)   bands (ev):

    -6.2563   0.7145   2.3378   3.2442   5.2107   6.3199   6.4132   7.5617

     occupation numbers 
     1.0000   1.0000   1.0000   1.0000   0.0000   0.0000   0.0000   0.0000

          k =-0.0884-0.0884 0.4419 (  4411 PWs)   bands (ev):

    -5.3088  -1.2618   1.5182   1.8544   4.9821   6.1324   8.3780   8.7987

     occupation numbers 
     1.0000   1.0000   1.0000   1.0000   0.0000   0.0000   0.0000   0.0000

          k = 0.0884 0.0884 0.4419 (  4411 PWs)   bands (ev):

    -5.3088  -1.2618   1.5182   1.8544   4.9821   6.1324   8.3780   8.7987

     occupation numbers 
     1.0000   1.0000   1.0000   1.0000   0.0000   0.0000   0.0000   0.0000

          k = 0.5303 0.5303-0.1768 (  4404 PWs)   bands (ev):

    -4.6479  -2.2868   0.8634   1.8442   5.0966   7.2939   8.2172   8.6827

     occupation numbers 
     1.0000   1.0000   1.0000   1.0000   0.0000   0.0000   0.0000   0.0000

          k =-0.5303-0.5303-0.1768 (  4404 PWs)   bands (ev):

    -4.6479  -2.2868   0.8634   1.8442   5.0966   7.2939   8.2172   8.6827

     occupation numbers 
     1.0000   1.0000   1.0000   1.0000   0.0000   0.0000   0.0000   0.0000

          k = 0.4419 0.4419-0.0884 (  4399 PWs)   bands (ev):

    -4.5243  -2.4484   0.5448   2.0736   5.2488   7.9055   8.2996   9.3860

     occupation numbers 
     1.0000   1.0000   1.0000   1.0000   0.0000   0.0000   0.0000   0.0000

          k =-0.4419-0.4419-0.0884 (  4399 PWs)   bands (ev):

    -4.5243  -2.4484   0.5448   2.0736   5.2488   7.9055   8.2996   9.3860

     occupation numbers 
     1.0000   1.0000   1.0000   1.0000   0.0000   0.0000   0.0000   0.0000

          k = 0.3536 0.3536 0.0000 (  4403 PWs)   bands (ev):

    -5.1407  -1.6055   0.7683   2.4807   5.4831   7.6258   7.8415   8.2991

     occupation numbers 
     1.0000   1.0000   1.0000   1.0000   0.0000   0.0000   0.0000   0.0000

          k = 0.6187 0.6187-0.0884 (  4393 PWs)   bands (ev):

    -4.1799  -2.7772   0.9990   1.4865   4.7139   5.5328  10.0760  10.2977

     occupation numbers 
     1.0000   1.0000   1.0000   1.0000   0.0000   0.0000   0.0000   0.0000

          k =-0.6187-0.6187-0.0884 (  4393 PWs)   bands (ev):

    -4.1799  -2.7772   0.9990   1.4865   4.7139   5.5328  10.0760  10.2977

     occupation numbers 
     1.0000   1.0000   1.0000   1.0000   0.0000   0.0000   0.0000   0.0000

          k = 0.5303 0.5303 0.0000 (  4392 PWs)   bands (ev):

    -3.9165  -3.0378   0.4187   1.6768   4.9187   7.2055   9.6332   9.6989

     occupation numbers 
     1.0000   1.0000   1.0000   1.0000   0.0000   0.0000   0.0000   0.0000

          k = 0.0000-0.1768 0.3536 (  4423 PWs)   bands (ev):

    -5.6609  -0.6860   1.5244   2.4059   5.7918   6.0842   7.6689   8.0966

     occupation numbers 
     1.0000   1.0000   1.0000   1.0000   0.0000   0.0000   0.0000   0.0000

          k = 0.6187 0.4419-0.2652 (  4403 PWs)   bands (ev):

    -5.0134  -1.8301   0.9994   2.0679   5.8272   6.6300   7.8984   8.6274

     occupation numbers 
     1.0000   1.0000   1.0000   1.0000   0.0000   0.0000   0.0000   0.0000

          k =-0.6187-0.4419-0.2652 (  4403 PWs)   bands (ev):

    -5.0134  -1.8301   0.9994   2.0679   5.8272   6.6300   7.8984   8.6274

     occupation numbers 
     1.0000   1.0000   1.0000   1.0000   0.0000   0.0000   0.0000   0.0000

          k = 0.2652 0.6187-0.4419 (  4403 PWs)   bands (ev):

    -5.0134  -1.8301   0.9994   2.0679   5.8272   6.6300   7.8984   8.6274

     occupation numbers 
     1.0000   1.0000   1.0000   1.0000   0.0000   0.0000   0.0000   0.0000

          k =-0.5303-0.3536-0.1768 (  4392 PWs)   bands (ev):

    -4.5761  -2.4688   0.8527   1.9150   5.7656   6.6765   8.3938   9.5338

     occupation numbers 
     1.0000   1.0000   1.0000   1.0000   0.0000   0.0000   0.0000   0.0000

          k = 0.1768 0.5303-0.3536 (  4392 PWs)   bands (ev):

    -4.5761  -2.4688   0.8527   1.9150   5.7656   6.6765   8.3937   9.5338

     occupation numbers 
     1.0000   1.0000   1.0000   1.0000   0.0000   0.0000   0.0000   0.0000

          k = 0.7071 0.5303-0.1768 (  4402 PWs)   bands (ev):

    -4.7121  -2.1059   1.0414   1.4930   5.4471   6.0179   8.2935   9.9465

     occupation numbers 
     1.0000   1.0000   1.0000   1.0000   0.0000   0.0000   0.0000   0.0000

          k = 0.6187 0.4419-0.0884 (  4393 PWs)   bands (ev):

    -4.0966  -2.8285   0.5636   1.3531   5.7808   7.3029   7.9646   9.5301

     occupation numbers 
     1.0000   1.0000   1.0000   1.0000   0.0000   0.0000   0.0000   0.0000

          k =-0.6187-0.4419-0.0884 (  4393 PWs)   bands (ev):

    -4.0966  -2.8285   0.5636   1.3531   5.7808   7.3029   7.9646   9.5301

     occupation numbers 
     1.0000   1.0000   1.0000   1.0000   0.0000   0.0000   0.0000   0.0000

          k = 0.0884 0.6187-0.4419 (  4393 PWs)   bands (ev):

    -4.0966  -2.8285   0.5636   1.3531   5.7808   7.3029   7.9646   9.5301

     occupation numbers 
     1.0000   1.0000   1.0000   1.0000   0.0000   0.0000   0.0000   0.0000

          k = 0.5303 0.3536 0.0000 (  4405 PWs)   bands (ev):

    -4.3594  -2.5360   0.4498   1.6163   6.0463   7.4718   7.9739   9.2970

     occupation numbers 
     1.0000   1.0000   1.0000   1.0000   0.0000   0.0000   0.0000   0.0000

     the Fermi energy is     3.6403 ev

!    total energy              =     -15.71688886 Ry
     estimated scf accuracy    <          6.5E-16 Ry
     smearing contrib. (-TS)   =      -0.00000000 Ry
     internal energy E=F+TS    =     -15.71688886 Ry

     convergence has been achieved in   4 iterations

     Forces acting on atoms (cartesian axes, Ry/au):

     atom    1 type  1   force =     0.00000007    0.00000007    0.00000007
     atom    2 type  1   force =    -0.00000007   -0.00000007   -0.00000007
     The non-local contrib.  to forces
     atom    1 type  1   force =    -0.00000030   -0.00000030   -0.00000030
     atom    2 type  1   force =    -0.00000047   -0.00000047   -0.00000047
     The ionic contribution  to forces
     atom    1 type  1   force =     0.00000026    0.00000026    0.00000026
     atom    2 type  1   force =    -0.00000026   -0.00000026   -0.00000026
     The local contribution  to forces
     atom    1 type  1   force =    -0.00000001   -0.00000001   -0.00000001
     atom    2 type  1   force =     0.00000051    0.00000051    0.00000051
     The core correction contribution to forces
     atom    1 type  1   force =     0.00000000    0.00000000    0.00000000
     atom    2 type  1   force =     0.00000000    0.00000000    0.00000000
     The Hubbard contrib.    to forces
     atom    1 type  1   force =     0.00000000    0.00000000    0.00000000
     atom    2 type  1   force =     0.00000000    0.00000000    0.00000000
     The SCF correction term to forces
     atom    1 type  1   force =    -0.00000001   -0.00000001   -0.00000001
     atom    2 type  1   force =     0.00000001    0.00000001    0.00000001

     Total force =     0.000000     Total SCF correction =     0.000000
     SCF correction compared to forces is large: reduce conv_thr to get better values


     Computing stress (Cartesian axis) and pressure

          total   stress  (Ry/bohr**3)                   (kbar)     P=     -129.25
  -0.00087865  -0.00000000  -0.00000000         -129.25       -0.00       -0.00
  -0.00000000  -0.00087865  -0.00000000           -0.00     -129.25       -0.00
  -0.00000000  -0.00000000  -0.00087865           -0.00       -0.00     -129.25

     kinetic stress (kbar)   1490.45      0.00      0.00
                                0.00   1490.45      0.00
                                0.00      0.00   1490.45

     local   stress (kbar)  -1159.79      0.00      0.00
                                0.00  -1159.79      0.00
                                0.00      0.00  -1159.79

     nonloc. stress (kbar)   1960.30     -0.00     -0.00
                               -0.00   1960.30     -0.00
                               -0.00     -0.00   1960.30

     hartree stress (kbar)    185.84     -0.00     -0.00
                               -0.00    185.84     -0.00
                               -0.00     -0.00    185.84

     exc-cor stress (kbar)   -560.33     -0.00     -0.00
                               -0.00   -560.33     -0.00
                               -0.00     -0.00   -560.33

     corecor stress (kbar)      0.00      0.00      0.00
                                0.00      0.00      0.00
                                0.00      0.00      0.00

     ewald   stress (kbar)  -2045.72     -0.00     -0.00
                               -0.00  -2045.72     -0.00
                               -0.00     -0.00  -2045.72

     hubbard stress (kbar)      0.00      0.00      0.00
                                0.00      0.00      0.00
                                0.00      0.00      0.00

     DFT-D   stress (kbar)      0.00      0.00      0.00
                                0.00      0.00      0.00
                                0.00      0.00      0.00

     XDM     stress (kbar)      0.00      0.00      0.00
                                0.00      0.00      0.00
                                0.00      0.00      0.00

     dft-nl  stress (kbar)      0.00      0.00      0.00
                                0.00      0.00      0.00
                                0.00      0.00      0.00

     TS-vdW  stress (kbar)      0.00      0.00      0.00
                                0.00      0.00      0.00
                                0.00      0.00      0.00

     MDB     stress (kbar)      0.00      0.00      0.00
                                0.00      0.00      0.00
                                0.00      0.00      0.00

     3D-RISM stress (kbar)      0.00      0.00      0.00
                                0.00      0.00      0.00
                                0.00      0.00      0.00


     Damped Dynamics: convergence achieved in  11 steps

     End of damped dynamics calculation

     Final energy =     -15.7168888578 Ry

Begin final coordinates
     new unit-cell volume =    364.41006 a.u.^3 (    54.00000 Ang^3 )
     density =      1.72730 g/cm^3

CELL_PARAMETERS (angstrom)
   3.000000000   3.000000000   0.000000000
   0.000000000   3.000000000   3.000000000
   3.000000000   0.000000000   3.000000000

ATOMIC_POSITIONS (crystal)
Si            0.0249999691        0.0249999691        0.0249999691
Si            0.2750000309        0.2750000309        0.2750000309
End final coordinates



     Writing all to output data dir ./wavefunc/Si.save/
 
     init_run     :      0.12s CPU      0.15s WALL (       1 calls)
     electrons    :     23.28s CPU     24.39s WALL (      12 calls)
     update_pot   :      0.14s CPU      0.15s WALL (      11 calls)
     forces       :      0.13s CPU      0.15s WALL (      12 calls)
     stress       :      1.00s CPU      1.03s WALL (      12 calls)

     Called by init_run:
     wfcinit      :      0.07s CPU      0.08s WALL (       1 calls)
     wfcinit:wfcr :      0.06s CPU      0.07s WALL (      65 calls)
     potinit      :      0.01s CPU      0.01s WALL (       1 calls)
     hinit0       :      0.01s CPU      0.01s WALL (       1 calls)

     Called by electrons:
     c_bands      :     19.02s CPU     19.69s WALL (     107 calls)
     sum_band     :      3.34s CPU      3.44s WALL (     107 calls)
     v_of_rho     :      0.84s CPU      0.92s WALL (     114 calls)
     v_h          :      0.04s CPU      0.05s WALL (     114 calls)
     v_xc         :      0.80s CPU      0.87s WALL (     114 calls)
     mix_rho      :      0.06s CPU      0.08s WALL (     107 calls)

     Called by c_bands:
     init_us_2    :      0.42s CPU      0.43s WALL (   15535 calls)
     init_us_2:cp :      0.41s CPU      0.42s WALL (   15535 calls)
     cegterg      :     18.01s CPU     18.62s WALL (    6955 calls)

     Called by sum_band:
     sum_band:wei :      0.01s CPU      0.01s WALL (     107 calls)
     sum_band:loo :      3.23s CPU      3.31s WALL (     107 calls)
     sum_band:buf :      0.03s CPU      0.03s WALL (    6955 calls)
     sum_band:ini :      0.19s CPU      0.19s WALL (    6955 calls)

     Called by *egterg:
     cdiaghg      :      1.35s CPU      1.39s WALL (   23078 calls)
     cegterg:over :      0.50s CPU      0.51s WALL (   17163 calls)
     cegterg:upda :      0.15s CPU      0.16s WALL (   17163 calls)
     cegterg:last :      0.16s CPU      0.16s WALL (   13827 calls)
     h_psi        :     15.41s CPU     15.94s WALL (   24183 calls)
     g_psi        :      0.07s CPU      0.08s WALL (   17163 calls)

     Called by h_psi:
     h_psi:calbec :      0.42s CPU      0.44s WALL (   24183 calls)
     vloc_psi     :     14.68s CPU     15.19s WALL (   24183 calls)
     add_vuspsi   :      0.19s CPU      0.20s WALL (   24183 calls)

     General routines
     calbec       :      0.59s CPU      0.60s WALL (   28083 calls)
     fft          :      0.30s CPU      0.35s WALL (    1444 calls)
     ffts         :      0.02s CPU      0.02s WALL (     221 calls)
     fftw         :     14.87s CPU     15.35s WALL (  355478 calls)
     interpolate  :      0.04s CPU      0.05s WALL (     114 calls)
 
     Parallel routines
 
     PWSCF        :     24.79s CPU     26.37s WALL

 
   This run was terminated on:  13:39:33  16Jan2024            

=------------------------------------------------------------------------------=
   JOB DONE.
=------------------------------------------------------------------------------=
