[0] MPI startup(): Intel(R) MPI Library, Version 2021.6  Build 20220227 (id: 28877f3f32)
[0] MPI startup(): Copyright (C) 2003-2022 Intel Corporation.  All rights reserved.
[0] MPI startup(): library kind: release
[0] MPI startup(): libfabric version: 1.13.2rc1-impi
[0] MPI startup(): libfabric provider: psm2
[0] MPI startup(): File "/opt/intel/oneapi/mpi/2021.6.0/etc/tuning_icx_shm-ofi_psm2.dat" not found
[0] MPI startup(): Load tuning file: "/opt/intel/oneapi/mpi/2021.6.0/etc/tuning_icx_shm-ofi.dat"
[0] MPI startup(): File "/opt/intel/oneapi/mpi/2021.6.0/etc/tuning_icx_shm-ofi.dat" not found
[0] MPI startup(): Load tuning file: "/opt/intel/oneapi/mpi/2021.6.0/etc/tuning_clx-ap_shm-ofi.dat"
[0] MPI startup(): Rank    Pid      Node name  Pin cpu
[0] MPI startup(): 0       594105   n008.hpc   {0}
[0] MPI startup(): 1       594106   n008.hpc   {1}
[0] MPI startup(): 2       594107   n008.hpc   {2}
[0] MPI startup(): 3       594108   n008.hpc   {3}
[0] MPI startup(): 4       594109   n008.hpc   {4}
[0] MPI startup(): 5       594110   n008.hpc   {5}
[0] MPI startup(): 6       594111   n008.hpc   {6}
[0] MPI startup(): 7       594112   n008.hpc   {7}
[0] MPI startup(): 8       594113   n008.hpc   {8}
[0] MPI startup(): 9       594114   n008.hpc   {9}
[0] MPI startup(): 10      594115   n008.hpc   {10}
[0] MPI startup(): 11      594116   n008.hpc   {11}
[0] MPI startup(): 12      594117   n008.hpc   {12}
[0] MPI startup(): 13      594118   n008.hpc   {13}
[0] MPI startup(): 14      594119   n008.hpc   {14}
[0] MPI startup(): 15      594120   n008.hpc   {15}
[0] MPI startup(): I_MPI_ROOT=/opt/intel/oneapi/mpi/2021.6.0
[0] MPI startup(): I_MPI_MPIRUN=mpirun
[0] MPI startup(): I_MPI_HYDRA_TOPOLIB=hwloc
[0] MPI startup(): I_MPI_HYDRA_BOOTSTRAP=slurm
[0] MPI startup(): I_MPI_INTERNAL_MEM_POLICY=default
[0] MPI startup(): I_MPI_DEBUG=5

     Program BANDS v.7.2 starts on 16Jan2024 at 14:31:57 

     This program is part of the open-source Quantum ESPRESSO suite
     for quantum simulation of materials; please cite
         "P. Giannozzi et al., J. Phys.:Condens. Matter 21 395502 (2009);
         "P. Giannozzi et al., J. Phys.:Condens. Matter 29 465901 (2017);
         "P. Giannozzi et al., J. Chem. Phys. 152 154105 (2020);
          URL http://www.quantum-espresso.org", 
     in publications or presentations arising from this work. More details at
     http://www.quantum-espresso.org/quote

     Parallel version (MPI), running on    16 processors

     MPI processes distributed on     1 nodes
     R & G space division:  proc/nbgrp/npool/nimage =      16
     105014 MiB available memory on the printing compute node when the environment starts
 

     Reading xml data from directory:

     ./wavefunc/Si.save/

     IMPORTANT: XC functional enforced from input :
     Exchange-correlation= PBE
                           (   1   4   3   4   0   0   0)
     Any further DFT definition will be discarded
     Please, verify this is what you really want

 
     Parallelization info
     --------------------
     sticks:   dense  smooth     PW     G-vecs:    dense   smooth      PW
     Min         147      73     20                 4733     1675     250
     Max         151      74     22                 4735     1676     252
     Sum        2371    1177    337                75745    26813    4015
 
     Using Slab Decomposition
 
     Reading collected, re-writing distributed wavefunctions
     high-symmetry point:  0.3536 0.3536 0.3536   x coordinate   0.0000
     high-symmetry point:  0.0000 0.0000 0.0000   x coordinate   0.6124
     high-symmetry point:  0.3536 0.3536-0.3536   x coordinate   1.2247
     high-symmetry point:  0.0000 0.7071 0.0000   x coordinate   1.8371
     high-symmetry point:  0.0000 0.0000 0.0000   x coordinate   2.5442

     Plottable bands (eV) written to file band.plot.gnu
     Bands written to file band.plot

 **************************************************************************

                    xk=(   0.35355,   0.35355,   0.35355  )

     zone border point and non-symmorphic group 
     symmetry decomposition not available

 **************************************************************************

 **************************************************************************

                    xk=(   0.34471,   0.34471,   0.34471  )

     point group C_3v (3m)  
     there are  3 classes
     the character table:

       E     2C3   3s_v 
A_1    1.00  1.00  1.00
A_2    1.00  1.00 -1.00
E      2.00 -1.00  0.00

     the symmetry operations in each class and the name of the first element:

     E        1
                                                                 
     2C3      2    3
                                                                 
     3s_v     4    5    6
                                                                 

     Band symmetry, C_3v (3m)   point group:

     e(  1 -  1) =     -3.56943  eV     1   --> A_1  L_1       
     e(  2 -  2) =     -0.87742  eV     1   --> A_1  L_1       
     e(  3 -  4) =      4.78904  eV     2   --> E    L_3       
     e(  5 -  5) =      7.38290  eV     1   --> A_1  L_1       
     e(  6 -  7) =      9.29181  eV     2   --> E    L_3       
     e(  8 -  8) =     13.63755  eV     1   --> A_1  L_1       
     e(  9 - 10) =     16.28849  eV     2   --> E    L_3       
     e( 11 - 11) =     17.01975  eV     1   --> A_1  L_1       
     e( 12 - 13) =     17.19236  eV     2   --> E    L_3       
     e( 14 - 14) =     18.63771  eV     1   --> A_1  L_1       
     e( 15 - 15) =     24.73909  eV     1   --> A_1  L_1       
     e( 16 - 16) =     25.75548  eV     1   --> A_1  L_1       
     e( 17 - 18) =     26.97342  eV     2   --> E    L_3       
     e( 19 - 20) =     27.56234  eV     2   --> E    L_3       
     e( 21 - 21) =     31.14430  eV     1   --> A_1  L_1       
     e( 22 - 23) =     31.91250  eV     2   --> E    L_3       
     e( 24 - 25) =     32.71601  eV     2   --> E    L_3       
     e( 26 - 26) =     33.95854  eV     1   --> A_1  L_1       
     e( 27 - 27) =     36.55908  eV     1   --> A_2  L_2       
     e( 28 - 29) =     37.71026  eV     2   --> E    L_3       
     e( 30 - 31) =     38.23400  eV     2   --> E    L_3       
     e( 32 - 32) =     39.06117  eV     1   --> A_1  L_1       
     e( 33 - 33) =     41.92905  eV     1   --> A_2  L_2       
     e( 34 - 34) =     42.16917  eV     1   --> A_1  L_1       
     e( 35 - 36) =     45.99381  eV     2   --> E    L_3       
     e( 37 - 38) =     47.82290  eV     2   --> E    L_3       
     e( 39 - 39) =     48.23798  eV     1   --> A_1  L_1       
     e( 40 - 40) =     48.79212  eV     1   --> A_1  L_1       

 **************************************************************************

 **************************************************************************

                    xk=(   0.33588,   0.33588,   0.33588  )

     Band symmetry, C_3v (3m)   point group:

     e(  1 -  1) =     -3.59469  eV     1   --> A_1  L_1       
     e(  2 -  2) =     -0.84078  eV     1   --> A_1  L_1       
     e(  3 -  4) =      4.79234  eV     2   --> E    L_3       
     e(  5 -  5) =      7.38680  eV     1   --> A_1  L_1       
     e(  6 -  7) =      9.29547  eV     2   --> E    L_3       
     e(  8 -  8) =     13.64316  eV     1   --> A_1  L_1       
     e(  9 - 10) =     16.11452  eV     2   --> E    L_3       
     e( 11 - 11) =     16.91835  eV     1   --> A_1  L_1       
     e( 12 - 13) =     17.38006  eV     2   --> E    L_3       
     e( 14 - 14) =     18.73458  eV     1   --> A_1  L_1       
     e( 15 - 15) =     24.42497  eV     1   --> A_1  L_1       
     e( 16 - 16) =     26.08826  eV     1   --> A_1  L_1       
     e( 17 - 18) =     26.67007  eV     2   --> E    L_3       
     e( 19 - 20) =     27.83551  eV     2   --> E    L_3       
     e( 21 - 21) =     31.01098  eV     1   --> A_1  L_1       
     e( 22 - 23) =     31.92950  eV     2   --> E    L_3       
     e( 24 - 25) =     32.73518  eV     2   --> E    L_3       
     e( 26 - 26) =     34.06282  eV     1   --> A_1  L_1       
     e( 27 - 27) =     36.54589  eV     1   --> A_2  L_2       
     e( 28 - 29) =     37.71106  eV     2   --> E    L_3       
     e( 30 - 31) =     38.25787  eV     2   --> E    L_3       
     e( 32 - 32) =     39.08018  eV     1   --> A_1  L_1       
     e( 33 - 33) =     41.95600  eV     1   --> A_2  L_2       
     e( 34 - 34) =     42.19672  eV     1   --> A_1  L_1       
     e( 35 - 36) =     45.99492  eV     2   --> E    L_3       
     e( 37 - 38) =     47.80912  eV     2   --> E    L_3       
     e( 39 - 39) =     48.23847  eV     1   --> A_1  L_1       
     e( 40 - 40) =     48.79983  eV     1   --> A_1  L_1       

 **************************************************************************

 **************************************************************************

                    xk=(   0.32704,   0.32704,   0.32704  )

     Band symmetry, C_3v (3m)   point group:

     e(  1 -  1) =     -3.63528  eV     1   --> A_1  L_1       
     e(  2 -  2) =     -0.78124  eV     1   --> A_1  L_1       
     e(  3 -  4) =      4.79785  eV     2   --> E    L_3       
     e(  5 -  5) =      7.39330  eV     1   --> A_1  L_1       
     e(  6 -  7) =      9.30150  eV     2   --> E    L_3       
     e(  8 -  8) =     13.65234  eV     1   --> A_1  L_1       
     e(  9 - 10) =     15.90658  eV     2   --> E    L_3       
     e( 11 - 11) =     16.77130  eV     1   --> A_1  L_1       
     e( 12 - 13) =     17.61085  eV     2   --> E    L_3       
     e( 14 - 14) =     18.87312  eV     1   --> A_1  L_1       
     e( 15 - 15) =     24.08624  eV     1   --> A_1  L_1       
     e( 16 - 17) =     26.36110  eV     2   --> E    L_3       
     e( 18 - 18) =     26.45909  eV     1   --> A_1  L_1       
     e( 19 - 20) =     28.09318  eV     2   --> E    L_3       
     e( 21 - 21) =     30.81039  eV     1   --> A_1  L_1       
     e( 22 - 23) =     31.95609  eV     2   --> E    L_3       
     e( 24 - 25) =     32.77003  eV     2   --> E    L_3       
     e( 26 - 26) =     34.21322  eV     1   --> A_1  L_1       
     e( 27 - 27) =     36.52423  eV     1   --> A_2  L_2       
     e( 28 - 29) =     37.71359  eV     2   --> E    L_3       
     e( 30 - 31) =     38.29627  eV     2   --> E    L_3       
     e( 32 - 32) =     39.11441  eV     1   --> A_1  L_1       
     e( 33 - 33) =     42.00060  eV     1   --> A_2  L_2       
     e( 34 - 34) =     42.24184  eV     1   --> A_1  L_1       
     e( 35 - 36) =     45.99667  eV     2   --> E    L_3       
     e( 37 - 38) =     47.78415  eV     2   --> E    L_3       
     e( 39 - 39) =     48.23950  eV     1   --> A_1  L_1       
     e( 40 - 40) =     48.81243  eV     1   --> A_1  L_1       

 **************************************************************************

 **************************************************************************

                    xk=(   0.31820,   0.31820,   0.31820  )

     Band symmetry, C_3v (3m)   point group:

     e(  1 -  1) =     -3.68924  eV     1   --> A_1  L_1       
     e(  2 -  2) =     -0.70076  eV     1   --> A_1  L_1       
     e(  3 -  4) =      4.80555  eV     2   --> E    L_3       
     e(  5 -  5) =      7.40239  eV     1   --> A_1  L_1       
     e(  6 -  7) =      9.30977  eV     2   --> E    L_3       
     e(  8 -  8) =     13.66485  eV     1   --> A_1  L_1       
     e(  9 - 10) =     15.68855  eV     2   --> E    L_3       
     e( 11 - 11) =     16.59572  eV     1   --> A_1  L_1       
     e( 12 - 13) =     17.86072  eV     2   --> E    L_3       
     e( 14 - 14) =     19.03456  eV     1   --> A_1  L_1       
     e( 15 - 15) =     23.74853  eV     1   --> A_1  L_1       
     e( 16 - 17) =     26.04915  eV     2   --> E    L_3       
     e( 18 - 18) =     26.84407  eV     1   --> A_1  L_1       
     e( 19 - 20) =     28.33150  eV     2   --> E    L_3       
     e( 21 - 21) =     30.56241  eV     1   --> A_1  L_1       
     e( 22 - 23) =     31.98941  eV     2   --> E    L_3       
     e( 24 - 25) =     32.82490  eV     2   --> E    L_3       
     e( 26 - 26) =     34.38734  eV     1   --> A_1  L_1       
     e( 27 - 27) =     36.49458  eV     1   --> A_2  L_2       
     e( 28 - 29) =     37.71920  eV     2   --> E    L_3       
     e( 30 - 31) =     38.34758  eV     2   --> E    L_3       
     e( 32 - 32) =     39.16744  eV     1   --> A_1  L_1       
     e( 33 - 33) =     42.06237  eV     1   --> A_2  L_2       
     e( 34 - 34) =     42.30339  eV     1   --> A_1  L_1       
     e( 35 - 36) =     45.99887  eV     2   --> E    L_3       
     e( 37 - 38) =     47.74482  eV     2   --> E    L_3       
     e( 39 - 39) =     48.24138  eV     1   --> A_1  L_1       
     e( 40 - 40) =     48.82964  eV     1   --> A_1  L_1       

 **************************************************************************

 **************************************************************************

                    xk=(   0.30936,   0.30936,   0.30936  )

     Band symmetry, C_3v (3m)   point group:

     e(  1 -  1) =     -3.75434  eV     1   --> A_1  L_1       
     e(  2 -  2) =     -0.60159  eV     1   --> A_1  L_1       
     e(  3 -  4) =      4.81545  eV     2   --> E    L_3       
     e(  5 -  5) =      7.41406  eV     1   --> A_1  L_1       
     e(  6 -  7) =      9.32012  eV     2   --> E    L_3       
     e(  8 -  8) =     13.68028  eV     1   --> A_1  L_1       
     e(  9 - 10) =     15.46909  eV     2   --> E    L_3       
     e( 11 - 11) =     16.40337  eV     1   --> A_1  L_1       
     e( 12 - 13) =     18.12089  eV     2   --> E    L_3       
     e( 14 - 14) =     19.20444  eV     1   --> A_1  L_1       
     e( 15 - 15) =     23.42147  eV     1   --> A_1  L_1       
     e( 16 - 17) =     25.73623  eV     2   --> E    L_3       
     e( 18 - 18) =     27.23631  eV     1   --> A_1  L_1       
     e( 19 - 20) =     28.54734  eV     2   --> E    L_3       
     e( 21 - 21) =     30.28290  eV     1   --> A_1  L_1       
     e( 22 - 23) =     32.02537  eV     2   --> E    L_3       
     e( 24 - 25) =     32.90548  eV     2   --> E    L_3       
     e( 26 - 26) =     34.56624  eV     1   --> A_1  L_1       
     e( 27 - 27) =     36.45752  eV     1   --> A_2  L_2       
     e( 28 - 29) =     37.72918  eV     2   --> E    L_3       
     e( 30 - 31) =     38.41012  eV     2   --> E    L_3       
     e( 32 - 32) =     39.24374  eV     1   --> A_1  L_1       
     e( 33 - 33) =     42.14071  eV     1   --> A_2  L_2       
     e( 34 - 34) =     42.37997  eV     1   --> A_1  L_1       
     e( 35 - 36) =     46.00121  eV     2   --> E    L_3       
     e( 37 - 38) =     47.68635  eV     2   --> E    L_3       
     e( 39 - 39) =     48.24447  eV     1   --> A_1  L_1       
     e( 40 - 40) =     48.85106  eV     1   --> A_1  L_1       

 **************************************************************************

 **************************************************************************

                    xk=(   0.30052,   0.30052,   0.30052  )

     Band symmetry, C_3v (3m)   point group:

     e(  1 -  1) =     -3.82832  eV     1   --> A_1  L_1       
     e(  2 -  2) =     -0.48601  eV     1   --> A_1  L_1       
     e(  3 -  4) =      4.82754  eV     2   --> E    L_3       
     e(  5 -  5) =      7.42829  eV     1   --> A_1  L_1       
     e(  6 -  7) =      9.33234  eV     2   --> E    L_3       
     e(  8 -  8) =     13.69805  eV     1   --> A_1  L_1       
     e(  9 - 10) =     15.25197  eV     2   --> E    L_3       
     e( 11 - 11) =     16.20181  eV     1   --> A_1  L_1       
     e( 12 - 13) =     18.38733  eV     2   --> E    L_3       
     e( 14 - 14) =     19.37096  eV     1   --> A_1  L_1       
     e( 15 - 15) =     23.11246  eV     1   --> A_1  L_1       
     e( 16 - 17) =     25.42408  eV     2   --> E    L_3       
     e( 18 - 18) =     27.63260  eV     1   --> A_1  L_1       
     e( 19 - 20) =     28.73825  eV     2   --> E    L_3       
     e( 21 - 21) =     29.98338  eV     1   --> A_1  L_1       
     e( 22 - 23) =     32.05937  eV     2   --> E    L_3       
     e( 24 - 25) =     33.01759  eV     2   --> E    L_3       
     e( 26 - 26) =     34.73540  eV     1   --> A_1  L_1       
     e( 27 - 27) =     36.41379  eV     1   --> A_2  L_2       
     e( 28 - 29) =     37.74455  eV     2   --> E    L_3       
     e( 30 - 31) =     38.48232  eV     2   --> E    L_3       
     e( 32 - 32) =     39.34817  eV     1   --> A_1  L_1       
     e( 33 - 33) =     42.23491  eV     1   --> A_2  L_2       
     e( 34 - 34) =     42.46995  eV     1   --> A_1  L_1       
     e( 35 - 36) =     46.00311  eV     2   --> E    L_3       
     e( 37 - 38) =     47.60247  eV     2   --> E    L_3       
     e( 39 - 39) =     48.24920  eV     1   --> A_1  L_1       
     e( 40 - 40) =     48.87625  eV     1   --> A_1  L_1       

 **************************************************************************

 **************************************************************************

                    xk=(   0.29168,   0.29168,   0.29168  )

     Band symmetry, C_3v (3m)   point group:

     e(  1 -  1) =     -3.90910  eV     1   --> A_1  L_1       
     e(  2 -  2) =     -0.35612  eV     1   --> A_1  L_1       
     e(  3 -  4) =      4.84182  eV     2   --> E    L_3       
     e(  5 -  5) =      7.44508  eV     1   --> A_1  L_1       
     e(  6 -  7) =      9.34616  eV     2   --> E    L_3       
     e(  8 -  8) =     13.71726  eV     1   --> A_1  L_1       
     e(  9 - 10) =     15.03920  eV     2   --> E    L_3       
     e( 11 - 11) =     15.99614  eV     1   --> A_1  L_1       
     e( 12 - 13) =     18.65764  eV     2   --> E    L_3       
     e( 14 - 14) =     19.52250  eV     1   --> A_1  L_1       
     e( 15 - 15) =     22.83009  eV     1   --> A_1  L_1       
     e( 16 - 17) =     25.11443  eV     2   --> E    L_3       
     e( 18 - 18) =     28.03016  eV     1   --> A_1  L_1       
     e( 19 - 20) =     28.90283  eV     2   --> E    L_3       
     e( 21 - 21) =     29.67276  eV     1   --> A_1  L_1       
     e( 22 - 23) =     32.08757  eV     2   --> E    L_3       
     e( 24 - 25) =     33.16554  eV     2   --> E    L_3       
     e( 26 - 26) =     34.88422  eV     1   --> A_1  L_1       
     e( 27 - 27) =     36.36414  eV     1   --> A_2  L_2       
     e( 28 - 29) =     37.76611  eV     2   --> E    L_3       
     e( 30 - 31) =     38.56278  eV     2   --> E    L_3       
     e( 32 - 32) =     39.48514  eV     1   --> A_1  L_1       
     e( 33 - 33) =     42.34418  eV     1   --> A_2  L_2       
     e( 34 - 34) =     42.57158  eV     1   --> A_1  L_1       
     e( 35 - 36) =     46.00354  eV     2   --> E    L_3       
     e( 37 - 38) =     47.48626  eV     2   --> E    L_3       
     e( 39 - 39) =     48.25599  eV     1   --> A_1  L_1       
     e( 40 - 40) =     48.90477  eV     1   --> A_1  L_1       

 **************************************************************************

 **************************************************************************

                    xk=(   0.28284,   0.28284,   0.28284  )

     Band symmetry, C_3v (3m)   point group:

     e(  1 -  1) =     -3.99486  eV     1   --> A_1  L_1       
     e(  2 -  2) =     -0.21379  eV     1   --> A_1  L_1       
     e(  3 -  4) =      4.85828  eV     2   --> E    L_3       
     e(  5 -  5) =      7.46440  eV     1   --> A_1  L_1       
     e(  6 -  7) =      9.36124  eV     2   --> E    L_3       
     e(  8 -  8) =     13.73662  eV     1   --> A_1  L_1       
     e(  9 - 10) =     14.83209  eV     2   --> E    L_3       
     e( 11 - 11) =     15.79024  eV     1   --> A_1  L_1       
     e( 12 - 13) =     18.92993  eV     2   --> E    L_3       
     e( 14 - 14) =     19.64564  eV     1   --> A_1  L_1       
     e( 15 - 15) =     22.58586  eV     1   --> A_1  L_1       
     e( 16 - 17) =     24.80907  eV     2   --> E    L_3       
     e( 18 - 18) =     28.42255  eV     1   --> A_1  L_1       
     e( 19 - 20) =     29.04092  eV     2   --> E    L_3       
     e( 21 - 21) =     29.36169  eV     1   --> A_1  L_1       
     e( 22 - 23) =     32.10786  eV     2   --> E    L_3       
     e( 24 - 25) =     33.35087  eV     2   --> E    L_3       
     e( 26 - 26) =     35.00565  eV     1   --> A_1  L_1       
     e( 27 - 27) =     36.30940  eV     1   --> A_2  L_2       
     e( 28 - 29) =     37.79436  eV     2   --> E    L_3       
     e( 30 - 31) =     38.65019  eV     2   --> E    L_3       
     e( 32 - 32) =     39.65789  eV     1   --> A_1  L_1       
     e( 33 - 33) =     42.46771  eV     1   --> A_2  L_2       
     e( 34 - 34) =     42.68310  eV     1   --> A_1  L_1       
     e( 35 - 36) =     46.00052  eV     2   --> E    L_3       
     e( 37 - 38) =     47.33248  eV     2   --> E    L_3       
     e( 39 - 39) =     48.26531  eV     1   --> A_1  L_1       
     e( 40 - 40) =     48.93616  eV     1   --> A_1  L_1       

 **************************************************************************

 **************************************************************************

                    xk=(   0.27400,   0.27400,   0.27400  )

     Band symmetry, C_3v (3m)   point group:

     e(  1 -  1) =     -4.08403  eV     1   --> A_1  L_1       
     e(  2 -  2) =     -0.06061  eV     1   --> A_1  L_1       
     e(  3 -  4) =      4.87691  eV     2   --> E    L_3       
     e(  5 -  5) =      7.48622  eV     1   --> A_1  L_1       
     e(  6 -  7) =      9.37719  eV     2   --> E    L_3       
     e(  8 -  8) =     13.75417  eV     1   --> A_1  L_1       
     e(  9 - 10) =     14.63159  eV     2   --> E    L_3       
     e( 11 - 11) =     15.58768  eV     1   --> A_1  L_1       
     e( 12 - 13) =     19.20230  eV     2   --> E    L_3       
     e( 14 - 14) =     19.72434  eV     1   --> A_1  L_1       
     e( 15 - 15) =     22.39456  eV     1   --> A_1  L_1       
     e( 16 - 17) =     24.51002  eV     2   --> E    L_3       
     e( 18 - 18) =     28.75347  eV     1   --> A_1  L_1       
     e( 19 - 19) =     29.10943  eV     1   --> A_1  L_1       
     e( 20 - 21) =     29.15355  eV     2   --> E    L_3       
     e( 22 - 23) =     32.11987  eV     2   --> E    L_3       
     e( 24 - 25) =     33.57231  eV     2   --> E    L_3       
     e( 26 - 26) =     35.09587  eV     1   --> A_1  L_1       
     e( 27 - 27) =     36.25037  eV     1   --> A_2  L_2       
     e( 28 - 29) =     37.82960  eV     2   --> E    L_3       
     e( 30 - 31) =     38.74331  eV     2   --> E    L_3       
     e( 32 - 32) =     39.86784  eV     1   --> A_1  L_1       
     e( 33 - 33) =     42.60468  eV     1   --> A_2  L_2       
     e( 34 - 34) =     42.80273  eV     1   --> A_1  L_1       
     e( 35 - 36) =     45.99009  eV     2   --> E    L_3       
     e( 37 - 38) =     47.14155  eV     2   --> E    L_3       
     e( 39 - 39) =     48.27759  eV     1   --> A_1  L_1       
     e( 40 - 40) =     48.97001  eV     1   --> A_1  L_1       

 **************************************************************************

 **************************************************************************

                    xk=(   0.26517,   0.26517,   0.26517  )

     Band symmetry, C_3v (3m)   point group:

     e(  1 -  1) =     -4.17532  eV     1   --> A_1  L_1       
     e(  2 -  2) =      0.10210  eV     1   --> A_1  L_1       
     e(  3 -  4) =      4.89769  eV     2   --> E    L_3       
     e(  5 -  5) =      7.51052  eV     1   --> A_1  L_1       
     e(  6 -  7) =      9.39353  eV     2   --> E    L_3       
     e(  8 -  8) =     13.76690  eV     1   --> A_1  L_1       
     e(  9 - 10) =     14.43856  eV     2   --> E    L_3       
     e( 11 - 11) =     15.39245  eV     1   --> A_1  L_1       
     e( 12 - 13) =     19.47240  eV     2   --> E    L_3       
     e( 14 - 14) =     19.74209  eV     1   --> A_1  L_1       
     e( 15 - 15) =     22.27182  eV     1   --> A_1  L_1       
     e( 16 - 17) =     24.21982  eV     2   --> E    L_3       
     e( 18 - 18) =     28.63257  eV     1   --> A_1  L_1       
     e( 19 - 20) =     29.24276  eV     2   --> E    L_3       
     e( 21 - 21) =     29.30842  eV     1   --> A_1  L_1       
     e( 22 - 23) =     32.12432  eV     2   --> E    L_3       
     e( 24 - 25) =     33.82666  eV     2   --> E    L_3       
     e( 26 - 26) =     35.15397  eV     1   --> A_1  L_1       
     e( 27 - 27) =     36.18784  eV     1   --> A_2  L_2       
     e( 28 - 29) =     37.87197  eV     2   --> E    L_3       
     e( 30 - 31) =     38.84089  eV     2   --> E    L_3       
     e( 32 - 32) =     40.11445  eV     1   --> A_1  L_1       
     e( 33 - 33) =     42.75430  eV     1   --> A_2  L_2       
     e( 34 - 34) =     42.92873  eV     1   --> A_1  L_1       
     e( 35 - 36) =     45.96367  eV     2   --> E    L_3       
     e( 37 - 38) =     46.92419  eV     2   --> E    L_3       
     e( 39 - 39) =     48.29329  eV     1   --> A_1  L_1       
     e( 40 - 40) =     49.00591  eV     1   --> A_1  L_1       

 **************************************************************************

 **************************************************************************

                    xk=(   0.25633,   0.25633,   0.25633  )

     Band symmetry, C_3v (3m)   point group:

     e(  1 -  1) =     -4.26769  eV     1   --> A_1  L_1       
     e(  2 -  2) =      0.27321  eV     1   --> A_1  L_1       
     e(  3 -  4) =      4.92062  eV     2   --> E    L_3       
     e(  5 -  5) =      7.53726  eV     1   --> A_1  L_1       
     e(  6 -  7) =      9.40975  eV     2   --> E    L_3       
     e(  8 -  8) =     13.77027  eV     1   --> A_1  L_1       
     e(  9 - 10) =     14.25378  eV     2   --> E    L_3       
     e( 11 - 11) =     15.20969  eV     1   --> A_1  L_1       
     e( 12 - 12) =     19.68839  eV     1   --> A_1  L_1       
     e( 13 - 14) =     19.73705  eV     2   --> E    L_3       
     e( 15 - 15) =     22.22752  eV     1   --> A_1  L_1       
     e( 16 - 17) =     23.94186  eV     2   --> E    L_3       
     e( 18 - 18) =     28.32475  eV     1   --> A_1  L_1       
     e( 19 - 20) =     29.31113  eV     2   --> E    L_3       
     e( 21 - 21) =     29.69520  eV     1   --> A_1  L_1       
     e( 22 - 23) =     32.12228  eV     2   --> E    L_3       
     e( 24 - 25) =     34.10977  eV     2   --> E    L_3       
     e( 26 - 26) =     35.18134  eV     1   --> A_1  L_1       
     e( 27 - 27) =     36.12256  eV     1   --> A_2  L_2       
     e( 28 - 29) =     37.92149  eV     2   --> E    L_3       
     e( 30 - 31) =     38.94159  eV     2   --> E    L_3       
     e( 32 - 32) =     40.39537  eV     1   --> A_1  L_1       
     e( 33 - 33) =     42.91582  eV     1   --> A_2  L_2       
     e( 34 - 34) =     43.05937  eV     1   --> A_1  L_1       
     e( 35 - 36) =     45.90243  eV     2   --> E    L_3       
     e( 37 - 38) =     46.70646  eV     2   --> E    L_3       
     e( 39 - 39) =     48.31286  eV     1   --> A_1  L_1       
     e( 40 - 40) =     49.04349  eV     1   --> A_1  L_1       

 **************************************************************************

 **************************************************************************

                    xk=(   0.24749,   0.24749,   0.24749  )

     Band symmetry, C_3v (3m)   point group:

     e(  1 -  1) =     -4.36024  eV     1   --> A_1  L_1       
     e(  2 -  2) =      0.45182  eV     1   --> A_1  L_1       
     e(  3 -  4) =      4.94566  eV     2   --> E    L_3       
     e(  5 -  5) =      7.56640  eV     1   --> A_1  L_1       
     e(  6 -  7) =      9.42521  eV     2   --> E    L_3       
     e(  8 -  8) =     13.75763  eV     1   --> A_1  L_1       
     e(  9 - 10) =     14.07804  eV     2   --> E    L_3       
     e( 11 - 11) =     15.04636  eV     1   --> A_1  L_1       
     e( 12 - 12) =     19.56508  eV     1   --> A_1  L_1       
     e( 13 - 14) =     19.99157  eV     2   --> E    L_3       
     e( 15 - 15) =     22.25931  eV     1   --> A_1  L_1       
     e( 16 - 17) =     23.68102  eV     2   --> E    L_3       
     e( 18 - 18) =     28.00385  eV     1   --> A_1  L_1       
     e( 19 - 20) =     29.36152  eV     2   --> E    L_3       
     e( 21 - 21) =     30.09697  eV     1   --> A_1  L_1       
     e( 22 - 23) =     32.11485  eV     2   --> E    L_3       
     e( 24 - 25) =     34.41723  eV     2   --> E    L_3       
     e( 26 - 26) =     35.18098  eV     1   --> A_1  L_1       
     e( 27 - 27) =     36.05525  eV     1   --> A_2  L_2       
     e( 28 - 29) =     37.97809  eV     2   --> E    L_3       
     e( 30 - 31) =     39.04390  eV     2   --> E    L_3       
     e( 32 - 32) =     40.70703  eV     1   --> A_1  L_1       
     e( 33 - 33) =     43.08851  eV     1   --> A_2  L_2       
     e( 34 - 34) =     43.19297  eV     1   --> A_1  L_1       
     e( 35 - 36) =     45.77389  eV     2   --> E    L_3       
     e( 37 - 38) =     46.53072  eV     2   --> E    L_3       
     e( 39 - 39) =     48.33678  eV     1   --> A_1  L_1       
     e( 40 - 40) =     49.08240  eV     1   --> A_1  L_1       

 **************************************************************************

 **************************************************************************

                    xk=(   0.23865,   0.23865,   0.23865  )

     Band symmetry, C_3v (3m)   point group:

     e(  1 -  1) =     -4.45229  eV     1   --> A_1  L_1       
     e(  2 -  2) =      0.63715  eV     1   --> A_1  L_1       
     e(  3 -  4) =      4.97281  eV     2   --> E    L_3       
     e(  5 -  5) =      7.59788  eV     1   --> A_1  L_1       
     e(  6 -  7) =      9.43924  eV     2   --> E    L_3       
     e(  8 -  8) =     13.72037  eV     1   --> A_1  L_1       
     e(  9 - 10) =     13.91216  eV     2   --> E    L_3       
     e( 11 - 11) =     14.91118  eV     1   --> A_1  L_1       
     e( 12 - 12) =     19.38514  eV     1   --> A_1  L_1       
     e( 13 - 14) =     20.22878  eV     2   --> E    L_3       
     e( 15 - 15) =     22.35373  eV     1   --> A_1  L_1       
     e( 16 - 17) =     23.44466  eV     2   --> E    L_3       
     e( 18 - 18) =     27.68316  eV     1   --> A_1  L_1       
     e( 19 - 20) =     29.39675  eV     2   --> E    L_3       
     e( 21 - 21) =     30.50116  eV     1   --> A_1  L_1       
     e( 22 - 23) =     32.10299  eV     2   --> E    L_3       
     e( 24 - 25) =     34.74480  eV     2   --> E    L_3       
     e( 26 - 26) =     35.15680  eV     1   --> A_1  L_1       
     e( 27 - 27) =     35.98654  eV     1   --> A_2  L_2       
     e( 28 - 29) =     38.04164  eV     2   --> E    L_3       
     e( 30 - 31) =     39.14611  eV     2   --> E    L_3       
     e( 32 - 32) =     41.04521  eV     1   --> A_1  L_1       
     e( 33 - 33) =     43.27172  eV     1   --> A_2  L_2       
     e( 34 - 34) =     43.32787  eV     1   --> A_1  L_1       
     e( 35 - 36) =     45.55753  eV     2   --> E    L_3       
     e( 37 - 38) =     46.42760  eV     2   --> E    L_3       
     e( 39 - 39) =     48.36555  eV     1   --> A_1  L_1       
     e( 40 - 40) =     49.09377  eV     1   -->   ?

 **************************************************************************

 **************************************************************************

                    xk=(   0.22981,   0.22981,   0.22981  )

     Band symmetry, C_3v (3m)   point group:

     e(  1 -  1) =     -4.54326  eV     1   --> A_1  L_1       
     e(  2 -  2) =      0.82854  eV     1   --> A_1  L_1       
     e(  3 -  4) =      5.00201  eV     2   --> E    L_3       
     e(  5 -  5) =      7.63166  eV     1   --> A_1  L_1       
     e(  6 -  7) =      9.45108  eV     2   --> E    L_3       
     e(  8 -  8) =     13.65010  eV     1   --> A_1  L_1       
     e(  9 - 10) =     13.75696  eV     2   --> E    L_3       
     e( 11 - 11) =     14.81244  eV     1   --> A_1  L_1       
     e( 12 - 12) =     19.16527  eV     1   --> A_1  L_1       
     e( 13 - 14) =     20.43766  eV     2   --> E    L_3       
     e( 15 - 15) =     22.49349  eV     1   --> A_1  L_1       
     e( 16 - 17) =     23.24395  eV     2   --> E    L_3       
     e( 18 - 18) =     27.36652  eV     1   --> A_1  L_1       
     e( 19 - 20) =     29.41938  eV     2   --> E    L_3       
     e( 21 - 21) =     30.90439  eV     1   --> A_1  L_1       
     e( 22 - 23) =     32.08746  eV     2   --> E    L_3       
     e( 24 - 25) =     35.08843  eV     2   --> E    L_3       
     e( 26 - 26) =     35.11315  eV     1   --> A_1  L_1       
     e( 27 - 27) =     35.91703  eV     1   --> A_2  L_2       
     e( 28 - 29) =     38.11199  eV     2   --> E    L_3       
     e( 30 - 31) =     39.24611  eV     2   --> E    L_3       
     e( 32 - 32) =     41.40550  eV     1   --> A_1  L_1       
     e( 33 - 33) =     43.46241  eV     1   --> A_1  L_1       
     e( 34 - 34) =     43.46485  eV     1   --> A_2  L_2       
     e( 35 - 36) =     45.27526  eV     2   --> E    L_3       
     e( 37 - 38) =     46.38443  eV     2   --> E    L_3       
     e( 39 - 39) =     48.39972  eV     1   --> A_1  L_1       
     e( 40 - 40) =     49.07380  eV     1   -->   ?

 **************************************************************************

 **************************************************************************

                    xk=(   0.22097,   0.22097,   0.22097  )

     Band symmetry, C_3v (3m)   point group:

     e(  1 -  1) =     -4.63267  eV     1   --> A_1  L_1       
     e(  2 -  2) =      1.02546  eV     1   --> A_1  L_1       
     e(  3 -  4) =      5.03325  eV     2   --> E    L_3       
     e(  5 -  5) =      7.66765  eV     1   --> A_1  L_1       
     e(  6 -  7) =      9.45992  eV     2   --> E    L_3       
     e(  8 -  8) =     13.54293  eV     1   --> A_1  L_1       
     e(  9 - 10) =     13.61334  eV     2   --> E    L_3       
     e( 11 - 11) =     14.75379  eV     1   --> A_1  L_1       
     e( 12 - 12) =     18.92010  eV     1   --> A_1  L_1       
     e( 13 - 14) =     20.60217  eV     2   --> E    L_3       
     e( 15 - 15) =     22.66317  eV     1   --> A_1  L_1       
     e( 16 - 17) =     23.09506  eV     2   --> E    L_3       
     e( 18 - 18) =     27.05651  eV     1   --> A_1  L_1       
     e( 19 - 20) =     29.43172  eV     2   --> E    L_3       
     e( 21 - 21) =     31.30428  eV     1   --> A_1  L_1       
     e( 22 - 23) =     32.06890  eV     2   --> E    L_3       
     e( 24 - 24) =     35.05468  eV     1   --> A_1  L_1       
     e( 25 - 26) =     35.44431  eV     2   --> E    L_3       
     e( 27 - 27) =     35.84726  eV     1   --> A_2  L_2       
     e( 28 - 29) =     38.18902  eV     2   --> E    L_3       
     e( 30 - 31) =     39.34142  eV     2   --> E    L_3       
     e( 32 - 32) =     41.78352  eV     1   --> A_1  L_1       
     e( 33 - 33) =     43.59497  eV     1   --> A_1  L_1       
     e( 34 - 34) =     43.66735  eV     1   --> A_2  L_2       
     e( 35 - 36) =     44.96135  eV     2   --> E    L_3       
     e( 37 - 38) =     46.37535  eV     2   --> E    L_3       
     e( 39 - 39) =     48.43985  eV     1   --> A_1  L_1       
     e( 40 - 40) =     49.06613  eV     1   -->   ?

 **************************************************************************

 **************************************************************************

                    xk=(   0.21213,   0.21213,   0.21213  )

     Band symmetry, C_3v (3m)   point group:

     e(  1 -  1) =     -4.72014  eV     1   --> A_1  L_1       
     e(  2 -  2) =      1.22741  eV     1   --> A_1  L_1       
     e(  3 -  4) =      5.06646  eV     2   --> E    L_3       
     e(  5 -  5) =      7.70578  eV     1   --> A_1  L_1       
     e(  6 -  7) =      9.46491  eV     2   --> E    L_3       
     e(  8 -  8) =     13.40193  eV     1   --> A_1  L_1       
     e(  9 - 10) =     13.48216  eV     2   --> E    L_3       
     e( 11 - 11) =     14.73171  eV     1   --> A_1  L_1       
     e( 12 - 12) =     18.66058  eV     1   --> A_1  L_1       
     e( 13 - 14) =     20.70269  eV     2   --> E    L_3       
     e( 15 - 15) =     22.85059  eV     1   --> A_1  L_1       
     e( 16 - 17) =     23.01771  eV     2   --> E    L_3       
     e( 18 - 18) =     26.75573  eV     1   --> A_1  L_1       
     e( 19 - 20) =     29.43573  eV     2   --> E    L_3       
     e( 21 - 21) =     31.69802  eV     1   --> A_1  L_1       
     e( 22 - 23) =     32.04781  eV     2   --> E    L_3       
     e( 24 - 24) =     34.98648  eV     1   --> A_1  L_1       
     e( 25 - 25) =     35.77770  eV     1   --> A_2  L_2       
     e( 26 - 27) =     35.80860  eV     2   --> E    L_3       
     e( 28 - 29) =     38.27267  eV     2   --> E    L_3       
     e( 30 - 31) =     39.42897  eV     2   --> E    L_3       
     e( 32 - 32) =     42.17500  eV     1   --> A_1  L_1       
     e( 33 - 33) =     43.72402  eV     1   --> A_1  L_1       
     e( 34 - 34) =     43.87873  eV     1   --> A_2  L_2       
     e( 35 - 36) =     44.63914  eV     2   --> E    L_3       
     e( 37 - 38) =     46.38494  eV     2   --> E    L_3       
     e( 39 - 39) =     48.48654  eV     1   --> A_1  L_1       
     e( 40 - 40) =     49.06712  eV     1   -->   ?

 **************************************************************************

 **************************************************************************

                    xk=(   0.20329,   0.20329,   0.20329  )

     Band symmetry, C_3v (3m)   point group:

     e(  1 -  1) =     -4.80533  eV     1   --> A_1  L_1       
     e(  2 -  2) =      1.43396  eV     1   --> A_1  L_1       
     e(  3 -  4) =      5.10160  eV     2   --> E    L_3       
     e(  5 -  5) =      7.74595  eV     1   --> A_1  L_1       
     e(  6 -  7) =      9.46519  eV     2   --> E    L_3       
     e(  8 -  8) =     13.23457  eV     1   --> A_1  L_1       
     e(  9 - 10) =     13.36431  eV     2   --> E    L_3       
     e( 11 - 11) =     14.73811  eV     1   --> A_1  L_1       
     e( 12 - 12) =     18.39455  eV     1   --> A_1  L_1       
     e( 13 - 14) =     20.72378  eV     2   --> E    L_3       
     e( 15 - 16) =     23.02743  eV     2   --> E    L_3       
     e( 17 - 17) =     23.04586  eV     1   --> A_1  L_1       
     e( 18 - 18) =     26.46759  eV     1   --> A_1  L_1       
     e( 19 - 20) =     29.43308  eV     2   --> E    L_3       
     e( 21 - 22) =     32.02462  eV     2   --> E    L_3       
     e( 23 - 23) =     32.08146  eV     1   --> A_1  L_1       
     e( 24 - 24) =     34.91468  eV     1   --> A_1  L_1       
     e( 25 - 25) =     35.70879  eV     1   --> A_2  L_2       
     e( 26 - 27) =     36.17720  eV     2   --> E    L_3       
     e( 28 - 29) =     38.36299  eV     2   --> E    L_3       
     e( 30 - 31) =     39.50522  eV     2   --> E    L_3       
     e( 32 - 32) =     42.57557  eV     1   --> A_1  L_1       
     e( 33 - 33) =     43.84828  eV     1   --> A_1  L_1       
     e( 34 - 34) =     44.09854  eV     1   --> A_2  L_2       
     e( 35 - 36) =     44.32383  eV     2   --> E    L_3       
     e( 37 - 38) =     46.40596  eV     2   --> E    L_3       
     e( 39 - 39) =     48.54035  eV     1   --> A_1  L_1       
     e( 40 - 40) =     49.07403  eV     1   -->   ?

 **************************************************************************

 **************************************************************************

                    xk=(   0.19445,   0.19445,   0.19445  )

     Band symmetry, C_3v (3m)   point group:

     e(  1 -  1) =     -4.88799  eV     1   --> A_1  L_1       
     e(  2 -  2) =      1.64474  eV     1   --> A_1  L_1       
     e(  3 -  4) =      5.13860  eV     2   --> E    L_3       
     e(  5 -  5) =      7.78805  eV     1   --> A_1  L_1       
     e(  6 -  7) =      9.45996  eV     2   --> E    L_3       
     e(  8 -  8) =     13.04856  eV     1   --> A_1  L_1       
     e(  9 - 10) =     13.26060  eV     2   --> E    L_3       
     e( 11 - 11) =     14.76436  eV     1   --> A_1  L_1       
     e( 12 - 12) =     18.12781  eV     1   --> A_1  L_1       
     e( 13 - 14) =     20.66488  eV     2   --> E    L_3       
     e( 15 - 16) =     23.12482  eV     2   --> E    L_3       
     e( 17 - 17) =     23.23975  eV     1   --> A_1  L_1       
     e( 18 - 18) =     26.19703  eV     1   --> A_1  L_1       
     e( 19 - 20) =     29.42520  eV     2   --> E    L_3       
     e( 21 - 22) =     31.99965  eV     2   --> E    L_3       
     e( 23 - 23) =     32.44770  eV     1   --> A_1  L_1       
     e( 24 - 24) =     34.84778  eV     1   --> A_1  L_1       
     e( 25 - 25) =     35.64090  eV     1   --> A_2  L_2       
     e( 26 - 27) =     36.54519  eV     2   --> E    L_3       
     e( 28 - 29) =     38.46013  eV     2   --> E    L_3       
     e( 30 - 31) =     39.56633  eV     2   --> E    L_3       
     e( 32 - 32) =     42.98025  eV     1   --> A_1  L_1       
     e( 33 - 33) =     43.96723  eV     1   --> A_1  L_1       
     e( 34 - 35) =     44.02731  eV     2   --> E    L_3       
     e( 36 - 36) =     44.32638  eV     1   --> A_2  L_2       
     e( 37 - 38) =     46.43497  eV     2   --> E    L_3       
     e( 39 - 39) =     48.60165  eV     1   --> A_1  L_1       
     e( 40 - 40) =     49.08478  eV     1   -->   ?

 **************************************************************************

 **************************************************************************

                    xk=(   0.18562,   0.18562,   0.18562  )

     Band symmetry, C_3v (3m)   point group:

     e(  1 -  1) =     -4.96790  eV     1   --> A_1  L_1       
     e(  2 -  2) =      1.85937  eV     1   --> A_1  L_1       
     e(  3 -  4) =      5.17737  eV     2   --> E    L_3       
     e(  5 -  5) =      7.83195  eV     1   --> A_1  L_1       
     e(  6 -  7) =      9.44850  eV     2   --> E    L_3       
     e(  8 -  8) =     12.84984  eV     1   --> A_1  L_1       
     e(  9 - 10) =     13.17174  eV     2   --> E    L_3       
     e( 11 - 11) =     14.80328  eV     1   --> A_1  L_1       
     e( 12 - 12) =     17.86493  eV     1   --> A_1  L_1       
     e( 13 - 14) =     20.54096  eV     2   --> E    L_3       
     e( 15 - 16) =     23.29497  eV     2   --> E    L_3       
     e( 17 - 17) =     23.42163  eV     1   --> A_1  L_1       
     e( 18 - 18) =     25.95180  eV     1   --> A_1  L_1       
     e( 19 - 20) =     29.41326  eV     2   --> E    L_3       
     e( 21 - 22) =     31.97319  eV     2   --> E    L_3       
     e( 23 - 23) =     32.78462  eV     1   --> A_1  L_1       
     e( 24 - 24) =     34.79913  eV     1   --> A_1  L_1       
     e( 25 - 25) =     35.57438  eV     1   --> A_2  L_2       
     e( 26 - 27) =     36.90605  eV     2   --> E    L_3       
     e( 28 - 29) =     38.56428  eV     2   --> E    L_3       
     e( 30 - 31) =     39.60915  eV     2   --> E    L_3       
     e( 32 - 32) =     43.38150  eV     1   --> A_1  L_1       
     e( 33 - 34) =     43.76036  eV     2   --> E    L_3       
     e( 35 - 35) =     44.08291  eV     1   --> A_1  L_1       
     e( 36 - 36) =     44.56190  eV     1   --> A_2  L_2       
     e( 37 - 38) =     46.47023  eV     2   --> E    L_3       
     e( 39 - 39) =     48.67029  eV     1   --> A_1  L_1       
     e( 40 - 40) =     49.09779  eV     1   -->   ?

 **************************************************************************

 **************************************************************************

                    xk=(   0.17678,   0.17678,   0.17678  )

     Band symmetry, C_3v (3m)   point group:

     e(  1 -  1) =     -5.04485  eV     1   --> A_1  L_1       
     e(  2 -  2) =      2.07752  eV     1   --> A_1  L_1       
     e(  3 -  4) =      5.21782  eV     2   --> E    L_3       
     e(  5 -  5) =      7.87750  eV     1   --> A_1  L_1       
     e(  6 -  7) =      9.43022  eV     2   --> E    L_3       
     e(  8 -  8) =     12.64247  eV     1   --> A_1  L_1       
     e(  9 - 10) =     13.09826  eV     2   --> E    L_3       
     e( 11 - 11) =     14.84909  eV     1   --> A_1  L_1       
     e( 12 - 12) =     17.61002  eV     1   --> A_1  L_1       
     e( 13 - 14) =     20.37207  eV     2   --> E    L_3       
     e( 15 - 16) =     23.51782  eV     2   --> E    L_3       
     e( 17 - 17) =     23.57713  eV     1   --> A_1  L_1       
     e( 18 - 18) =     25.74439  eV     1   --> A_1  L_1       
     e( 19 - 20) =     29.39828  eV     2   --> E    L_3       
     e( 21 - 22) =     31.94547  eV     2   --> E    L_3       
     e( 23 - 23) =     33.07128  eV     1   --> A_1  L_1       
     e( 24 - 24) =     34.79060  eV     1   --> A_1  L_1       
     e( 25 - 25) =     35.50953  eV     1   --> A_2  L_2       
     e( 26 - 27) =     37.25046  eV     2   --> E    L_3       
     e( 28 - 29) =     38.67486  eV     2   --> E    L_3       
     e( 30 - 31) =     39.63366  eV     2   --> E    L_3       
     e( 32 - 33) =     43.53318  eV     2   --> E    L_3       
     e( 34 - 34) =     43.76092  eV     1   --> A_1  L_1       
     e( 35 - 35) =     44.20827  eV     1   --> A_1  L_1       
     e( 36 - 36) =     44.80475  eV     1   --> A_2  L_2       
     e( 37 - 38) =     46.51082  eV     2   --> E    L_3       
     e( 39 - 39) =     48.74474  eV     1   --> A_1  L_1       
     e( 40 - 40) =     49.11185  eV     1   -->   ?

 **************************************************************************

 **************************************************************************

                    xk=(   0.16794,   0.16794,   0.16794  )

     Band symmetry, C_3v (3m)   point group:

     e(  1 -  1) =     -5.11869  eV     1   --> A_1  L_1       
     e(  2 -  2) =      2.29883  eV     1   --> A_1  L_1       
     e(  3 -  4) =      5.25984  eV     2   --> E    L_3       
     e(  5 -  5) =      7.92453  eV     1   --> A_1  L_1       
     e(  6 -  7) =      9.40477  eV     2   --> E    L_3       
     e(  8 -  8) =     12.42911  eV     1   --> A_1  L_1       
     e(  9 - 10) =     13.04051  eV     2   --> E    L_3       
     e( 11 - 11) =     14.89672  eV     1   --> A_1  L_1       
     e( 12 - 12) =     17.36721  eV     1   --> A_1  L_1       
     e( 13 - 14) =     20.17506  eV     2   --> E    L_3       
     e( 15 - 15) =     23.68625  eV     1   --> A_1  L_1       
     e( 16 - 17) =     23.77653  eV     2   --> E    L_3       
     e( 18 - 18) =     25.59345  eV     1   --> A_1  L_1       
     e( 19 - 20) =     29.38112  eV     2   --> E    L_3       
     e( 21 - 22) =     31.91665  eV     2   --> E    L_3       
     e( 23 - 23) =     33.27764  eV     1   --> A_1  L_1       
     e( 24 - 24) =     34.85283  eV     1   --> A_1  L_1       
     e( 25 - 25) =     35.44661  eV     1   --> A_2  L_2       
     e( 26 - 27) =     37.56454  eV     2   --> E    L_3       
     e( 28 - 29) =     38.78785  eV     2   --> E    L_3       
     e( 30 - 31) =     39.64850  eV     2   --> E    L_3       
     e( 32 - 33) =     43.35473  eV     2   --> E    L_3       
     e( 34 - 34) =     44.05359  eV     1   --> A_1  L_1       
     e( 35 - 35) =     44.40272  eV     1   --> A_1  L_1       
     e( 36 - 36) =     45.05466  eV     1   --> A_2  L_2       
     e( 37 - 38) =     46.55618  eV     2   --> E    L_3       
     e( 39 - 39) =     48.82002  eV     1   --> A_1  L_1       
     e( 40 - 40) =     49.12602  eV     1   -->   ?

 **************************************************************************

 **************************************************************************

                    xk=(   0.15910,   0.15910,   0.15910  )

     Band symmetry, C_3v (3m)   point group:

     e(  1 -  1) =     -5.18929  eV     1   --> A_1  L_1       
     e(  2 -  2) =      2.52297  eV     1   --> A_1  L_1       
     e(  3 -  4) =      5.30329  eV     2   --> E    L_3       
     e(  5 -  5) =      7.97283  eV     1   --> A_1  L_1       
     e(  6 -  7) =      9.37202  eV     2   --> E    L_3       
     e(  8 -  8) =     12.21150  eV     1   --> A_1  L_1       
     e(  9 - 10) =     12.99852  eV     2   --> E    L_3       
     e( 11 - 11) =     14.94107  eV     1   --> A_1  L_1       
     e( 12 - 12) =     17.14118  eV     1   --> A_1  L_1       
     e( 13 - 14) =     19.96161  eV     2   --> E    L_3       
     e( 15 - 15) =     23.72644  eV     1   --> A_1  L_1       
     e( 16 - 17) =     24.05936  eV     2   --> E    L_3       
     e( 18 - 18) =     25.52062  eV     1   --> A_1  L_1       
     e( 19 - 20) =     29.36251  eV     2   --> E    L_3       
     e( 21 - 22) =     31.88688  eV     2   --> E    L_3       
     e( 23 - 23) =     33.38039  eV     1   --> A_1  L_1       
     e( 24 - 24) =     35.00949  eV     1   --> A_1  L_1       
     e( 25 - 25) =     35.38587  eV     1   --> A_2  L_2       
     e( 26 - 27) =     37.82839  eV     2   --> E    L_3       
     e( 28 - 29) =     38.88921  eV     2   --> E    L_3       
     e( 30 - 31) =     39.68072  eV     2   --> E    L_3       
     e( 32 - 33) =     43.23124  eV     2   --> E    L_3       
     e( 34 - 34) =     44.19772  eV     1   --> A_1  L_1       
     e( 35 - 35) =     44.72259  eV     1   --> A_1  L_1       
     e( 36 - 36) =     45.31134  eV     1   --> A_2  L_2       
     e( 37 - 38) =     46.60598  eV     2   --> E    L_3       
     e( 39 - 39) =     48.88320  eV     1   --> A_1  L_1       
     e( 40 - 40) =     49.13963  eV     1   -->   ?

 **************************************************************************

 **************************************************************************

                    xk=(   0.15026,   0.15026,   0.15026  )

     Band symmetry, C_3v (3m)   point group:

     e(  1 -  1) =     -5.25653  eV     1   --> A_1  L_1       
     e(  2 -  2) =      2.74958  eV     1   --> A_1  L_1       
     e(  3 -  4) =      5.34802  eV     2   --> E    L_3       
     e(  5 -  5) =      8.02218  eV     1   --> A_1  L_1       
     e(  6 -  7) =      9.33214  eV     2   --> E    L_3       
     e(  8 -  8) =     11.99083  eV     1   --> A_1  L_1       
     e(  9 - 10) =     12.97207  eV     2   --> E    L_3       
     e( 11 - 11) =     14.97634  eV     1   --> A_1  L_1       
     e( 12 - 12) =     16.93759  eV     1   --> A_1  L_1       
     e( 13 - 14) =     19.73939  eV     2   --> E    L_3       
     e( 15 - 15) =     23.68545  eV     1   --> A_1  L_1       
     e( 16 - 17) =     24.35859  eV     2   --> E    L_3       
     e( 18 - 18) =     25.53753  eV     1   --> A_1  L_1       
     e( 19 - 20) =     29.34311  eV     2   --> E    L_3       
     e( 21 - 22) =     31.85620  eV     2   --> E    L_3       
     e( 23 - 23) =     33.38633  eV     1   --> A_1  L_1       
     e( 24 - 24) =     35.25395  eV     1   --> A_1  L_1       
     e( 25 - 25) =     35.32751  eV     1   --> A_2  L_2       
     e( 26 - 27) =     38.01607  eV     2   --> E    L_3       
     e( 28 - 29) =     38.95452  eV     2   --> E    L_3       
     e( 30 - 31) =     39.77761  eV     2   --> E    L_3       
     e( 32 - 33) =     43.16486  eV     2   --> E    L_3       
     e( 34 - 34) =     44.26819  eV     1   --> A_1  L_1       
     e( 35 - 35) =     45.08768  eV     1   --> A_1  L_1       
     e( 36 - 36) =     45.57455  eV     1   --> A_2  L_2       
     e( 37 - 38) =     46.65997  eV     2   --> E    L_3       
     e( 39 - 39) =     48.91013  eV     1   --> A_1  L_1       
     e( 40 - 40) =     49.15218  eV     1   -->   ?

 **************************************************************************

 **************************************************************************

                    xk=(   0.14142,   0.14142,   0.14142  )

     Band symmetry, C_3v (3m)   point group:

     e(  1 -  1) =     -5.32031  eV     1   --> A_1  L_1       
     e(  2 -  2) =      2.97827  eV     1   --> A_1  L_1       
     e(  3 -  4) =      5.39383  eV     2   --> E    L_3       
     e(  5 -  5) =      8.07229  eV     1   --> A_1  L_1       
     e(  6 -  7) =      9.28555  eV     2   --> E    L_3       
     e(  8 -  8) =     11.76796  eV     1   --> A_1  L_1       
     e(  9 - 10) =     12.96060  eV     2   --> E    L_3       
     e( 11 - 11) =     14.99567  eV     1   --> A_1  L_1       
     e( 12 - 12) =     16.76329  eV     1   --> A_1  L_1       
     e( 13 - 14) =     19.51343  eV     2   --> E    L_3       
     e( 15 - 15) =     23.57241  eV     1   --> A_1  L_1       
     e( 16 - 17) =     24.66906  eV     2   --> E    L_3       
     e( 18 - 18) =     25.63458  eV     1   --> A_1  L_1       
     e( 19 - 20) =     29.32350  eV     2   --> E    L_3       
     e( 21 - 22) =     31.82465  eV     2   --> E    L_3       
     e( 23 - 23) =     33.32381  eV     1   --> A_1  L_1       
     e( 24 - 24) =     35.27172  eV     1   --> A_2  L_2       
     e( 25 - 25) =     35.55779  eV     1   --> A_1  L_1       
     e( 26 - 27) =     38.09841  eV     2   --> E    L_3       
     e( 28 - 29) =     38.98395  eV     2   --> E    L_3       
     e( 30 - 31) =     39.96912  eV     2   --> E    L_3       
     e( 32 - 33) =     43.15352  eV     2   --> E    L_3       
     e( 34 - 34) =     44.30661  eV     1   --> A_1  L_1       
     e( 35 - 35) =     45.45141  eV     1   --> A_1  L_1       
     e( 36 - 36) =     45.84405  eV     1   --> A_2  L_2       
     e( 37 - 38) =     46.71796  eV     2   --> E    L_3       
     e( 39 - 39) =     48.88674  eV     1   --> A_1  L_1       
     e( 40 - 40) =     49.16329  eV     1   -->   ?

 **************************************************************************

 **************************************************************************

                    xk=(   0.13258,   0.13258,   0.13258  )

     Band symmetry, C_3v (3m)   point group:

     e(  1 -  1) =     -5.38055  eV     1   --> A_1  L_1       
     e(  2 -  2) =      3.20860  eV     1   --> A_1  L_1       
     e(  3 -  4) =      5.44052  eV     2   --> E    L_3       
     e(  5 -  5) =      8.12286  eV     1   --> A_1  L_1       
     e(  6 -  7) =      9.23296  eV     2   --> E    L_3       
     e(  8 -  8) =     11.54354  eV     1   --> A_1  L_1       
     e(  9 - 10) =     12.96331  eV     2   --> E    L_3       
     e( 11 - 11) =     14.99169  eV     1   --> A_1  L_1       
     e( 12 - 12) =     16.62574  eV     1   --> A_1  L_1       
     e( 13 - 14) =     19.28717  eV     2   --> E    L_3       
     e( 15 - 15) =     23.40964  eV     1   --> A_1  L_1       
     e( 16 - 17) =     24.98717  eV     2   --> E    L_3       
     e( 18 - 18) =     25.78913  eV     1   --> A_1  L_1       
     e( 19 - 20) =     29.30420  eV     2   --> E    L_3       
     e( 21 - 22) =     31.79217  eV     2   --> E    L_3       
     e( 23 - 23) =     33.21867  eV     1   --> A_1  L_1       
     e( 24 - 24) =     35.21866  eV     1   --> A_2  L_2       
     e( 25 - 25) =     35.89495  eV     1   --> A_1  L_1       
     e( 26 - 27) =     38.05673  eV     2   --> E    L_3       
     e( 28 - 29) =     39.01697  eV     2   --> E    L_3       
     e( 30 - 31) =     40.23830  eV     2   --> E    L_3       
     e( 32 - 33) =     43.19205  eV     2   --> E    L_3       
     e( 34 - 34) =     44.32285  eV     1   --> A_1  L_1       
     e( 35 - 35) =     45.79960  eV     1   --> A_1  L_1       
     e( 36 - 36) =     46.11961  eV     1   --> A_2  L_2       
     e( 37 - 38) =     46.77972  eV     2   --> E    L_3       
     e( 39 - 39) =     48.83142  eV     1   --> A_1  L_1       
     e( 40 - 40) =     49.17266  eV     1   -->   ?

 **************************************************************************

 **************************************************************************

                    xk=(   0.12374,   0.12374,   0.12374  )

     Band symmetry, C_3v (3m)   point group:

     e(  1 -  1) =     -5.43717  eV     1   --> A_1  L_1       
     e(  2 -  2) =      3.44011  eV     1   --> A_1  L_1       
     e(  3 -  4) =      5.48781  eV     2   --> E    L_3       
     e(  5 -  5) =      8.17351  eV     1   --> A_1  L_1       
     e(  6 -  7) =      9.17525  eV     2   --> E    L_3       
     e(  8 -  8) =     11.31819  eV     1   --> A_1  L_1       
     e(  9 - 10) =     12.97912  eV     2   --> E    L_3       
     e( 11 - 11) =     14.95835  eV     1   --> A_1  L_1       
     e( 12 - 12) =     16.53108  eV     1   --> A_1  L_1       
     e( 13 - 14) =     19.06310  eV     2   --> E    L_3       
     e( 15 - 15) =     23.21807  eV     1   --> A_1  L_1       
     e( 16 - 17) =     25.31020  eV     2   --> E    L_3       
     e( 18 - 18) =     25.98006  eV     1   --> A_1  L_1       
     e( 19 - 20) =     29.28573  eV     2   --> E    L_3       
     e( 21 - 22) =     31.75864  eV     2   --> E    L_3       
     e( 23 - 23) =     33.08710  eV     1   --> A_1  L_1       
     e( 24 - 24) =     35.16847  eV     1   --> A_2  L_2       
     e( 25 - 25) =     36.24880  eV     1   --> A_1  L_1       
     e( 26 - 27) =     37.90579  eV     2   --> E    L_3       
     e( 28 - 29) =     39.07556  eV     2   --> E    L_3       
     e( 30 - 31) =     40.55331  eV     2   --> E    L_3       
     e( 32 - 33) =     43.27404  eV     2   --> E    L_3       
     e( 34 - 34) =     44.32044  eV     1   --> A_1  L_1       
     e( 35 - 35) =     46.12534  eV     1   --> A_1  L_1       
     e( 36 - 36) =     46.40102  eV     1   --> A_2  L_2       
     e( 37 - 38) =     46.84498  eV     2   --> E    L_3       
     e( 39 - 39) =     48.76606  eV     1   --> A_1  L_1       
     e( 40 - 40) =     49.17990  eV     1   -->   ?

 **************************************************************************

 **************************************************************************

                    xk=(   0.11490,   0.11490,   0.11490  )

     Band symmetry, C_3v (3m)   point group:

     e(  1 -  1) =     -5.49010  eV     1   --> A_1  L_1       
     e(  2 -  2) =      3.67223  eV     1   --> A_1  L_1       
     e(  3 -  4) =      5.53543  eV     2   --> E    L_3       
     e(  5 -  5) =      8.22385  eV     1   --> A_1  L_1       
     e(  6 -  7) =      9.11352  eV     2   --> E    L_3       
     e(  8 -  8) =     11.09251  eV     1   --> A_1  L_1       
     e(  9 - 10) =     13.00674  eV     2   --> E    L_3       
     e( 11 - 11) =     14.89389  eV     1   --> A_1  L_1       
     e( 12 - 12) =     16.48111  eV     1   --> A_1  L_1       
     e( 13 - 14) =     18.84314  eV     2   --> E    L_3       
     e( 15 - 15) =     23.01213  eV     1   --> A_1  L_1       
     e( 16 - 17) =     25.63590  eV     2   --> E    L_3       
     e( 18 - 18) =     26.19277  eV     1   --> A_1  L_1       
     e( 19 - 20) =     29.26860  eV     2   --> E    L_3       
     e( 21 - 22) =     31.72384  eV     2   --> E    L_3       
     e( 23 - 23) =     32.93839  eV     1   --> A_1  L_1       
     e( 24 - 24) =     35.12128  eV     1   --> A_2  L_2       
     e( 25 - 25) =     36.60951  eV     1   --> A_1  L_1       
     e( 26 - 27) =     37.68165  eV     2   --> E    L_3       
     e( 28 - 29) =     39.15213  eV     2   --> E    L_3       
     e( 30 - 31) =     40.89010  eV     2   --> E    L_3       
     e( 32 - 33) =     43.39333  eV     2   --> E    L_3       
     e( 34 - 34) =     44.30165  eV     1   --> A_1  L_1       
     e( 35 - 35) =     46.42417  eV     1   --> A_1  L_1       
     e( 36 - 36) =     46.68805  eV     1   --> A_2  L_2       
     e( 37 - 38) =     46.91335  eV     2   --> E    L_3       
     e( 39 - 39) =     48.70151  eV     1   --> A_1  L_1       
     e( 40 - 40) =     49.18433  eV     1   -->   ?

 **************************************************************************

 **************************************************************************

                    xk=(   0.10607,   0.10607,   0.10607  )

     Band symmetry, C_3v (3m)   point group:

     e(  1 -  1) =     -5.53930  eV     1   --> A_1  L_1       
     e(  2 -  2) =      3.90430  eV     1   --> A_1  L_1       
     e(  3 -  4) =      5.58301  eV     2   --> E    L_3       
     e(  5 -  5) =      8.27336  eV     1   --> A_1  L_1       
     e(  6 -  7) =      9.04893  eV     2   --> E    L_3       
     e(  8 -  8) =     10.86717  eV     1   --> A_1  L_1       
     e(  9 - 10) =     13.04472  eV     2   --> E    L_3       
     e( 11 - 11) =     14.80225  eV     1   --> A_1  L_1       
     e( 12 - 12) =     16.47187  eV     1   --> A_1  L_1       
     e( 13 - 14) =     18.62891  eV     2   --> E    L_3       
     e( 15 - 15) =     22.80097  eV     1   --> A_1  L_1       
     e( 16 - 17) =     25.96217  eV     2   --> E    L_3       
     e( 18 - 18) =     26.41807  eV     1   --> A_1  L_1       
     e( 19 - 20) =     29.25336  eV     2   --> E    L_3       
     e( 21 - 22) =     31.68748  eV     2   --> E    L_3       
     e( 23 - 23) =     32.77807  eV     1   --> A_1  L_1       
     e( 24 - 24) =     35.07720  eV     1   --> A_2  L_2       
     e( 25 - 25) =     36.97082  eV     1   --> A_1  L_1       
     e( 26 - 27) =     37.41452  eV     2   --> E    L_3       
     e( 28 - 29) =     39.23563  eV     2   --> E    L_3       
     e( 30 - 31) =     41.23262  eV     2   --> E    L_3       
     e( 32 - 33) =     43.54475  eV     2   --> E    L_3       
     e( 34 - 34) =     44.26855  eV     1   --> A_1  L_1       
     e( 35 - 35) =     46.69299  eV     1   --> A_1  L_1       
     e( 36 - 36) =     46.98046  eV     1   --> A_2  L_2       
     e( 37 - 38) =     46.98433  eV     2   --> E    L_3       
     e( 39 - 39) =     48.64273  eV     1   --> A_1  L_1       
     e( 40 - 40) =     49.18461  eV     1   -->   ?

 **************************************************************************

 **************************************************************************

                    xk=(   0.09723,   0.09723,   0.09723  )

     Band symmetry, C_3v (3m)   point group:

     e(  1 -  1) =     -5.58471  eV     1   --> A_1  L_1       
     e(  2 -  2) =      4.13551  eV     1   --> A_1  L_1       
     e(  3 -  4) =      5.63016  eV     2   --> E    L_3       
     e(  5 -  5) =      8.32150  eV     1   --> A_1  L_1       
     e(  6 -  7) =      8.98276  eV     2   --> E    L_3       
     e(  8 -  8) =     10.64302  eV     1   --> A_1  L_1       
     e(  9 - 10) =     13.09148  eV     2   --> E    L_3       
     e( 11 - 11) =     14.69134  eV     1   --> A_1  L_1       
     e( 12 - 12) =     16.49531  eV     1   --> A_1  L_1       
     e( 13 - 14) =     18.42186  eV     2   --> E    L_3       
     e( 15 - 15) =     22.59048  eV     1   --> A_1  L_1       
     e( 16 - 17) =     26.28691  eV     2   --> E    L_3       
     e( 18 - 18) =     26.64999  eV     1   --> A_1  L_1       
     e( 19 - 20) =     29.24065  eV     2   --> E    L_3       
     e( 21 - 22) =     31.64914  eV     2   --> E    L_3       
     e( 23 - 23) =     32.60970  eV     1   --> A_1  L_1       
     e( 24 - 24) =     35.03634  eV     1   --> A_2  L_2       
     e( 25 - 26) =     37.12386  eV     2   --> E    L_3       
     e( 27 - 27) =     37.32827  eV     1   --> A_1  L_1       
     e( 28 - 29) =     39.31971  eV     2   --> E    L_3       
     e( 30 - 31) =     41.56957  eV     2   --> E    L_3       
     e( 32 - 33) =     43.72417  eV     2   --> E    L_3       
     e( 34 - 34) =     44.22326  eV     1   --> A_1  L_1       
     e( 35 - 35) =     46.92940  eV     1   --> A_1  L_1       
     e( 36 - 37) =     47.05713  eV     2   --> E    L_3       
     e( 38 - 38) =     47.27798  eV     1   --> A_2  L_2       
     e( 39 - 39) =     48.59313  eV     1   --> A_1  L_1       
     e( 40 - 40) =     49.17823  eV     1   -->   ?

 **************************************************************************

 **************************************************************************

                    xk=(   0.08839,   0.08839,   0.08839  )

     Band symmetry, C_3v (3m)   point group:

     e(  1 -  1) =     -5.62629  eV     1   --> A_1  L_1       
     e(  2 -  2) =      4.36486  eV     1   --> A_1  L_1       
     e(  3 -  4) =      5.67644  eV     2   --> E    L_3       
     e(  5 -  5) =      8.36759  eV     1   --> A_1  L_1       
     e(  6 -  7) =      8.91629  eV     2   --> E    L_3       
     e(  8 -  8) =     10.42113  eV     1   --> A_1  L_1       
     e(  9 - 10) =     13.14529  eV     2   --> E    L_3       
     e( 11 - 11) =     14.56994  eV     1   --> A_1  L_1       
     e( 12 - 12) =     16.54242  eV     1   --> A_1  L_1       
     e( 13 - 14) =     18.22341  eV     2   --> E    L_3       
     e( 15 - 15) =     22.38476  eV     1   --> A_1  L_1       
     e( 16 - 17) =     26.60772  eV     2   --> E    L_3       
     e( 18 - 18) =     26.88439  eV     1   --> A_1  L_1       
     e( 19 - 20) =     29.23122  eV     2   --> E    L_3       
     e( 21 - 22) =     31.60827  eV     2   --> E    L_3       
     e( 23 - 23) =     32.43590  eV     1   --> A_1  L_1       
     e( 24 - 24) =     34.99877  eV     1   --> A_2  L_2       
     e( 25 - 26) =     36.82232  eV     2   --> E    L_3       
     e( 27 - 27) =     37.67819  eV     1   --> A_1  L_1       
     e( 28 - 29) =     39.40116  eV     2   --> E    L_3       
     e( 30 - 31) =     41.89236  eV     2   --> E    L_3       
     e( 32 - 33) =     43.92791  eV     2   --> E    L_3       
     e( 34 - 34) =     44.16794  eV     1   --> A_1  L_1       
     e( 35 - 36) =     47.13066  eV     2   --> E    L_3       
     e( 37 - 37) =     47.13091  eV     1   --> A_1  L_1       
     e( 38 - 38) =     47.58029  eV     1   --> A_2  L_2       
     e( 39 - 39) =     48.55670  eV     1   --> A_1  L_1       
     e( 40 - 40) =     49.16132  eV     1   -->   ?

 **************************************************************************

 **************************************************************************

                    xk=(   0.07955,   0.07955,   0.07955  )

     Band symmetry, C_3v (3m)   point group:

     e(  1 -  1) =     -5.66401  eV     1   --> A_1  L_1       
     e(  2 -  2) =      4.59109  eV     1   --> A_1  L_1       
     e(  3 -  4) =      5.72131  eV     2   --> E    L_3       
     e(  5 -  5) =      8.41084  eV     1   --> A_1  L_1       
     e(  6 -  7) =      8.85082  eV     2   --> E    L_3       
     e(  8 -  8) =     10.20293  eV     1   --> A_1  L_1       
     e(  9 - 10) =     13.20432  eV     2   --> E    L_3       
     e( 11 - 11) =     14.44557  eV     1   --> A_1  L_1       
     e( 12 - 12) =     16.60521  eV     1   --> A_1  L_1       
     e( 13 - 14) =     18.03502  eV     2   --> E    L_3       
     e( 15 - 15) =     22.18698  eV     1   --> A_1  L_1       
     e( 16 - 17) =     26.92172  eV     2   --> E    L_3       
     e( 18 - 18) =     27.11804  eV     1   --> A_1  L_1       
     e( 19 - 20) =     29.22611  eV     2   --> E    L_3       
     e( 21 - 22) =     31.56423  eV     2   --> E    L_3       
     e( 23 - 23) =     32.25887  eV     1   --> A_1  L_1       
     e( 24 - 24) =     34.96457  eV     1   --> A_2  L_2       
     e( 25 - 26) =     36.51908  eV     2   --> E    L_3       
     e( 27 - 27) =     38.01712  eV     1   --> A_1  L_1       
     e( 28 - 29) =     39.47816  eV     2   --> E    L_3       
     e( 30 - 31) =     42.19435  eV     2   --> E    L_3       
     e( 32 - 32) =     44.10475  eV     1   --> A_1  L_1       
     e( 33 - 34) =     44.15194  eV     2   --> E    L_3       
     e( 35 - 36) =     47.20331  eV     2   --> E    L_3       
     e( 37 - 37) =     47.29426  eV     1   --> A_1  L_1       
     e( 38 - 38) =     47.88700  eV     1   --> A_2  L_2       
     e( 39 - 39) =     48.53909  eV     1   --> A_1  L_1       
     e( 40 - 40) =     49.13029  eV     1   -->   ?

 **************************************************************************

 **************************************************************************

                    xk=(   0.07071,   0.07071,   0.07071  )

     Band symmetry, C_3v (3m)   point group:

     e(  1 -  1) =     -5.69784  eV     1   --> A_1  L_1       
     e(  2 -  2) =      4.81257  eV     1   --> A_1  L_1       
     e(  3 -  4) =      5.76421  eV     2   --> E    L_3       
     e(  5 -  5) =      8.45029  eV     1   --> A_1  L_1       
     e(  6 -  7) =      8.78766  eV     2   --> E    L_3       
     e(  8 -  8) =      9.99036  eV     1   --> A_1  L_1       
     e(  9 - 10) =     13.26659  eV     2   --> E    L_3       
     e( 11 - 11) =     14.32404  eV     1   --> A_1  L_1       
     e( 12 - 12) =     16.67723  eV     1   --> A_1  L_1       
     e( 13 - 14) =     17.85823  eV     2   --> E    L_3       
     e( 15 - 15) =     21.99981  eV     1   --> A_1  L_1       
     e( 16 - 17) =     27.22527  eV     2   --> E    L_3       
     e( 18 - 18) =     27.34805  eV     1   --> A_1  L_1       
     e( 19 - 20) =     29.22671  eV     2   --> E    L_3       
     e( 21 - 22) =     31.51627  eV     2   --> E    L_3       
     e( 23 - 23) =     32.08080  eV     1   --> A_1  L_1       
     e( 24 - 24) =     34.93382  eV     1   --> A_2  L_2       
     e( 25 - 26) =     36.22155  eV     2   --> E    L_3       
     e( 27 - 27) =     38.34156  eV     1   --> A_1  L_1       
     e( 28 - 29) =     39.54958  eV     2   --> E    L_3       
     e( 30 - 31) =     42.47071  eV     2   --> E    L_3       
     e( 32 - 32) =     44.03587  eV     1   --> A_1  L_1       
     e( 33 - 34) =     44.39086  eV     2   --> E    L_3       
     e( 35 - 36) =     47.27283  eV     2   --> E    L_3       
     e( 37 - 37) =     47.41568  eV     1   --> A_1  L_1       
     e( 38 - 38) =     48.19757  eV     1   --> A_2  L_2       
     e( 39 - 39) =     48.54724  eV     1   --> A_1  L_1       
     e( 40 - 40) =     49.08663  eV     1   -->   ?

 **************************************************************************

 **************************************************************************

                    xk=(   0.06187,   0.06187,   0.06187  )

     Band symmetry, C_3v (3m)   point group:

     e(  1 -  1) =     -5.72774  eV     1   --> A_1  L_1       
     e(  2 -  2) =      5.02715  eV     1   --> A_1  L_1       
     e(  3 -  4) =      5.80450  eV     2   --> E    L_3       
     e(  5 -  5) =      8.48477  eV     1   --> A_1  L_1       
     e(  6 -  7) =      8.72806  eV     2   --> E    L_3       
     e(  8 -  8) =      9.78609  eV     1   --> A_1  L_1       
     e(  9 - 10) =     13.33002  eV     2   --> E    L_3       
     e( 11 - 11) =     14.20963  eV     1   --> A_1  L_1       
     e( 12 - 12) =     16.75333  eV     1   --> A_1  L_1       
     e( 13 - 14) =     17.69477  eV     2   --> E    L_3       
     e( 15 - 15) =     21.82575  eV     1   --> A_1  L_1       
     e( 16 - 17) =     27.51352  eV     2   --> E    L_3       
     e( 18 - 18) =     27.57148  eV     1   --> A_1  L_1       
     e( 19 - 20) =     29.23500  eV     2   --> E    L_3       
     e( 21 - 22) =     31.46366  eV     2   --> E    L_3       
     e( 23 - 23) =     31.90411  eV     1   --> A_1  L_1       
     e( 24 - 24) =     34.90656  eV     1   --> A_2  L_2       
     e( 25 - 26) =     35.93638  eV     2   --> E    L_3       
     e( 27 - 27) =     38.64761  eV     1   --> A_1  L_1       
     e( 28 - 29) =     39.61452  eV     2   --> E    L_3       
     e( 30 - 31) =     42.71835  eV     2   --> E    L_3       
     e( 32 - 32) =     43.96355  eV     1   --> A_1  L_1       
     e( 33 - 34) =     44.63725  eV     2   --> E    L_3       
     e( 35 - 36) =     47.33618  eV     2   --> E    L_3       
     e( 37 - 37) =     47.49335  eV     1   --> A_1  L_1       
     e( 38 - 38) =     48.51122  eV     1   --> A_2  L_2       
     e( 39 - 39) =     48.58667  eV     1   --> A_1  L_1       
     e( 40 - 40) =     49.04070  eV     1   -->   ?

 **************************************************************************

 **************************************************************************

                    xk=(   0.05303,   0.05303,   0.05303  )

     Band symmetry, C_3v (3m)   point group:

     e(  1 -  1) =     -5.75370  eV     1   --> A_1  L_1       
     e(  2 -  2) =      5.23197  eV     1   --> A_1  L_1       
     e(  3 -  4) =      5.84148  eV     2   --> E    L_3       
     e(  5 -  5) =      8.51276  eV     1   --> A_1  L_1       
     e(  6 -  7) =      8.67327  eV     2   --> E    L_3       
     e(  8 -  8) =      9.59380  eV     1   --> A_1  L_1       
     e(  9 - 10) =     13.39233  eV     2   --> E    L_3       
     e( 11 - 11) =     14.10550  eV     1   --> A_1  L_1       
     e( 12 - 12) =     16.82919  eV     1   --> A_1  L_1       
     e( 13 - 14) =     17.54652  eV     2   --> E    L_3       
     e( 15 - 15) =     21.66729  eV     1   --> A_1  L_1       
     e( 16 - 17) =     27.78005  eV     2   --> E    L_3       
     e( 18 - 18) =     27.78499  eV     1   --> A_1  L_1       
     e( 19 - 20) =     29.25366  eV     2   --> E    L_3       
     e( 21 - 22) =     31.40590  eV     2   --> E    L_3       
     e( 23 - 23) =     31.73174  eV     1   --> A_1  L_1       
     e( 24 - 24) =     34.88284  eV     1   --> A_2  L_2       
     e( 25 - 26) =     35.67002  eV     2   --> E    L_3       
     e( 27 - 27) =     38.93088  eV     1   --> A_1  L_1       
     e( 28 - 29) =     39.67229  eV     2   --> E    L_3       
     e( 30 - 31) =     42.93569  eV     2   --> E    L_3       
     e( 32 - 32) =     43.89020  eV     1   --> A_1  L_1       
     e( 33 - 34) =     44.88152  eV     2   --> E    L_3       
     e( 35 - 36) =     47.38971  eV     2   --> E    L_3       
     e( 37 - 37) =     47.53093  eV     1   --> A_1  L_1       
     e( 38 - 38) =     48.65782  eV     1   --> A_1  L_1       
     e( 39 - 39) =     48.82677  eV     1   --> A_2  L_2       
     e( 40 - 40) =     49.00807  eV     1   -->   ?

 **************************************************************************

 **************************************************************************

                    xk=(   0.04419,   0.04419,   0.04419  )

     Band symmetry, C_3v (3m)   point group:

     e(  1 -  1) =     -5.77569  eV     1   --> A_1  L_1       
     e(  2 -  2) =      5.42323  eV     1   --> A_1  L_1       
     e(  3 -  4) =      5.87445  eV     2   --> E    L_3       
     e(  5 -  5) =      8.53236  eV     1   --> A_1  L_1       
     e(  6 -  7) =      8.62448  eV     2   --> E    L_3       
     e(  8 -  8) =      9.41857  eV     1   --> A_1  L_1       
     e(  9 - 10) =     13.45113  eV     2   --> E    L_3       
     e( 11 - 11) =     14.01401  eV     1   --> A_1  L_1       
     e( 12 - 12) =     16.90106  eV     1   --> A_1  L_1       
     e( 13 - 14) =     17.41554  eV     2   --> E    L_3       
     e( 15 - 15) =     21.52694  eV     1   --> A_1  L_1       
     e( 16 - 16) =     27.98446  eV     1   --> A_1  L_1       
     e( 17 - 18) =     28.01660  eV     2   --> E    L_3       
     e( 19 - 20) =     29.28598  eV     2   --> E    L_3       
     e( 21 - 22) =     31.34306  eV     2   --> E    L_3       
     e( 23 - 23) =     31.56752  eV     1   --> A_1  L_1       
     e( 24 - 24) =     34.86270  eV     1   --> A_2  L_2       
     e( 25 - 26) =     35.42892  eV     2   --> E    L_3       
     e( 27 - 27) =     39.18634  eV     1   --> A_1  L_1       
     e( 28 - 29) =     39.72226  eV     2   --> E    L_3       
     e( 30 - 31) =     43.12195  eV     2   --> E    L_3       
     e( 32 - 32) =     43.81856  eV     1   --> A_1  L_1       
     e( 33 - 34) =     45.11258  eV     2   --> E    L_3       
     e( 35 - 36) =     47.43001  eV     2   --> E    L_3       
     e( 37 - 37) =     47.53800  eV     1   --> A_1  L_1       
     e( 38 - 38) =     48.75531  eV     1   --> A_1  L_1       
     e( 39 - 40) =     49.00268  eV     2   --> E    L_3       

 **************************************************************************

 **************************************************************************

                    xk=(   0.03536,   0.03536,   0.03536  )

     Band symmetry, C_3v (3m)   point group:

     e(  1 -  1) =     -5.79371  eV     1   --> A_1  L_1       
     e(  2 -  2) =      5.59584  eV     1   --> A_1  L_1       
     e(  3 -  4) =      5.90269  eV     2   --> E    L_3       
     e(  5 -  5) =      8.54142  eV     1   --> A_1  L_1       
     e(  6 -  7) =      8.58279  eV     2   --> E    L_3       
     e(  8 -  8) =      9.26702  eV     1   --> A_1  L_1       
     e(  9 - 10) =     13.50396  eV     2   --> E    L_3       
     e( 11 - 11) =     13.93695  eV     1   --> A_1  L_1       
     e( 12 - 12) =     16.96553  eV     1   --> A_1  L_1       
     e( 13 - 14) =     17.30404  eV     2   --> E    L_3       
     e( 15 - 15) =     21.40729  eV     1   --> A_1  L_1       
     e( 16 - 16) =     28.16462  eV     1   --> A_1  L_1       
     e( 17 - 18) =     28.21390  eV     2   --> E    L_3       
     e( 19 - 20) =     29.33446  eV     2   --> E    L_3       
     e( 21 - 22) =     31.27655  eV     2   --> E    L_3       
     e( 23 - 23) =     31.41648  eV     1   --> A_1  L_1       
     e( 24 - 24) =     34.84618  eV     1   --> A_2  L_2       
     e( 25 - 26) =     35.21963  eV     2   --> E    L_3       
     e( 27 - 27) =     39.40827  eV     1   --> A_1  L_1       
     e( 28 - 29) =     39.76389  eV     2   --> E    L_3       
     e( 30 - 31) =     43.27654  eV     2   --> E    L_3       
     e( 32 - 32) =     43.75183  eV     1   --> A_1  L_1       
     e( 33 - 34) =     45.31895  eV     2   --> E    L_3       
     e( 35 - 36) =     47.45543  eV     2   --> E    L_3       
     e( 37 - 37) =     47.52642  eV     1   --> A_1  L_1       
     e( 38 - 38) =     48.87112  eV     1   --> A_1  L_1       
     e( 39 - 40) =     49.03216  eV     2   --> E    L_3       

 **************************************************************************

 **************************************************************************

                    xk=(   0.02652,   0.02652,   0.02652  )

     Band symmetry, C_3v (3m)   point group:

     e(  1 -  1) =     -5.80773  eV     1   --> A_1  L_1       
     e(  2 -  2) =      5.74328  eV     1   --> A_1  L_1       
     e(  3 -  4) =      5.92550  eV     2   --> E    L_3       
     e(  5 -  5) =      8.53855  eV     1   --> A_1  L_1       
     e(  6 -  7) =      8.54919  eV     2   --> E    L_3       
     e(  8 -  8) =      9.14652  eV     1   --> A_1  L_1       
     e(  9 - 10) =     13.54834  eV     2   --> E    L_3       
     e( 11 - 11) =     13.87568  eV     1   --> A_1  L_1       
     e( 12 - 12) =     17.01952  eV     1   --> A_1  L_1       
     e( 13 - 14) =     17.21426  eV     2   --> E    L_3       
     e( 15 - 15) =     21.31086  eV     1   --> A_1  L_1       
     e( 16 - 16) =     28.31873  eV     1   --> A_1  L_1       
     e( 17 - 18) =     28.36447  eV     2   --> E    L_3       
     e( 19 - 20) =     29.39742  eV     2   --> E    L_3       
     e( 21 - 22) =     31.20998  eV     2   --> E    L_3       
     e( 23 - 23) =     31.28520  eV     1   --> A_1  L_1       
     e( 24 - 24) =     34.83331  eV     1   --> A_2  L_2       
     e( 25 - 26) =     35.04854  eV     2   --> E    L_3       
     e( 27 - 27) =     39.59048  eV     1   --> A_1  L_1       
     e( 28 - 29) =     39.79675  eV     2   --> E    L_3       
     e( 30 - 31) =     43.39866  eV     2   --> E    L_3       
     e( 32 - 32) =     43.69368  eV     1   --> A_1  L_1       
     e( 33 - 34) =     45.49009  eV     2   --> E    L_3       
     e( 35 - 36) =     47.46742  eV     2   --> E    L_3       
[...]
     e( 29 - 29) =     38.84648  eV     1   --> A_1  G_1 D_1   
     e( 30 - 30) =     41.47328  eV     1   --> B_2  G_4 D_2'  
     e( 31 - 31) =     43.15032  eV     1   --> A_1  G_1 D_1   
     e( 32 - 32) =     43.20427  eV     1   --> A_2  G_2 D_1'  
     e( 33 - 33) =     44.63470  eV     1   --> A_1  G_1 D_1   
     e( 34 - 34) =     45.61381  eV     1   --> B_1  G_3 D_2   
     e( 35 - 36) =     46.66545  eV     2   --> E    G_5 D_5   
     e( 37 - 37) =     47.17590  eV     1   --> B_2  G_4 D_2'  
     e( 38 - 39) =     47.68237  eV     2   --> E    G_5 D_5   
     e( 40 - 40) =     48.71992  eV     1   -->   ?

 **************************************************************************

 **************************************************************************

                    xk=(   0.00000,   0.12374,   0.00000  )

     Band symmetry, C_4v (4mm)  point group:

     e(  1 -  1) =     -5.69488  eV     1   --> A_1  G_1 D_1   
     e(  2 -  2) =      5.17914  eV     1   --> B_2  G_4 D_2'  
     e(  3 -  4) =      5.50700  eV     2   --> E    G_5 D_5   
     e(  5 -  5) =      8.21050  eV     1   --> A_1  G_1 D_1   
     e(  6 -  7) =      9.11358  eV     2   --> E    G_5 D_5   
     e(  8 -  8) =      9.71927  eV     1   --> B_2  G_4 D_2'  
     e(  9 -  9) =     12.80970  eV     1   --> B_2  G_4 D_2'  
     e( 10 - 10) =     13.75540  eV     1   --> A_2  G_2 D_1'  
     e( 11 - 11) =     14.34857  eV     1   --> A_1  G_1 D_1   
     e( 12 - 13) =     17.32165  eV     2   --> E    G_5 D_5   
     e( 14 - 14) =     17.64682  eV     1   --> B_2  G_4 D_2'  
     e( 15 - 15) =     22.09506  eV     1   --> B_2  G_4 D_2'  
     e( 16 - 17) =     27.09835  eV     2   --> E    G_5 D_5   
     e( 18 - 18) =     28.27054  eV     1   --> B_1  G_3 D_2   
     e( 19 - 19) =     28.69712  eV     1   --> A_1  G_1 D_1   
     e( 20 - 20) =     28.71418  eV     1   --> B_2  G_4 D_2'  
     e( 21 - 21) =     31.53812  eV     1   --> A_1  G_1 D_1   
     e( 22 - 23) =     31.86128  eV     2   --> E    G_5 D_5   
     e( 24 - 25) =     35.75946  eV     2   --> E    G_5 D_5   
     e( 26 - 26) =     36.12774  eV     1   --> B_1  G_3 D_2   
     e( 27 - 28) =     39.05093  eV     2   --> E    G_5 D_5   
     e( 29 - 29) =     39.06498  eV     1   --> A_1  G_1 D_1   
     e( 30 - 30) =     41.88745  eV     1   --> B_2  G_4 D_2'  
     e( 31 - 31) =     43.28060  eV     1   --> A_2  G_2 D_1'  
     e( 32 - 32) =     43.47129  eV     1   --> A_1  G_1 D_1   
     e( 33 - 33) =     44.51493  eV     1   --> A_1  G_1 D_1   
     e( 34 - 34) =     45.62739  eV     1   --> B_1  G_3 D_2   
     e( 35 - 36) =     47.06439  eV     2   --> E    G_5 D_5   
     e( 37 - 37) =     47.24348  eV     1   --> B_2  G_4 D_2'  
     e( 38 - 39) =     47.71754  eV     2   --> E    G_5 D_5   
     e( 40 - 40) =     48.79234  eV     1   -->   ?

 **************************************************************************

 **************************************************************************

                    xk=(   0.00000,   0.10607,   0.00000  )

     Band symmetry, C_4v (4mm)  point group:

     e(  1 -  1) =     -5.72957  eV     1   --> A_1  G_1 D_1   
     e(  2 -  2) =      5.35583  eV     1   --> B_2  G_4 D_2'  
     e(  3 -  4) =      5.60893  eV     2   --> E    G_5 D_5   
     e(  5 -  5) =      8.28216  eV     1   --> A_1  G_1 D_1   
     e(  6 -  7) =      8.96932  eV     2   --> E    G_5 D_5   
     e(  8 -  8) =      9.56725  eV     1   --> B_2  G_4 D_2'  
     e(  9 -  9) =     12.97714  eV     1   --> B_2  G_4 D_2'  
     e( 10 - 10) =     13.71688  eV     1   --> A_2  G_2 D_1'  
     e( 11 - 11) =     14.20833  eV     1   --> A_1  G_1 D_1   
     e( 12 - 13) =     17.26153  eV     2   --> E    G_5 D_5   
     e( 14 - 14) =     17.52811  eV     1   --> B_2  G_4 D_2'  
     e( 15 - 15) =     21.86156  eV     1   --> B_2  G_4 D_2'  
     e( 16 - 17) =     27.40232  eV     2   --> E    G_5 D_5   
     e( 18 - 18) =     28.55835  eV     1   --> B_1  G_3 D_2   
     e( 19 - 19) =     28.66756  eV     1   --> B_2  G_4 D_2'  
     e( 20 - 20) =     28.88338  eV     1   --> A_1  G_1 D_1   
     e( 21 - 21) =     31.45617  eV     1   --> A_1  G_1 D_1   
     e( 22 - 23) =     31.73113  eV     2   --> E    G_5 D_5   
     e( 24 - 25) =     35.51544  eV     2   --> E    G_5 D_5   
     e( 26 - 26) =     35.83126  eV     1   --> B_1  G_3 D_2   
     e( 27 - 28) =     39.25313  eV     2   --> E    G_5 D_5   
     e( 29 - 29) =     39.25951  eV     1   --> A_1  G_1 D_1   
     e( 30 - 30) =     42.27499  eV     1   --> B_2  G_4 D_2'  
     e( 31 - 31) =     43.34984  eV     1   --> A_2  G_2 D_1'  
     e( 32 - 32) =     43.72120  eV     1   --> A_1  G_1 D_1   
     e( 33 - 33) =     44.48757  eV     1   --> A_1  G_1 D_1   
     e( 34 - 34) =     45.64479  eV     1   --> B_1  G_3 D_2   
     e( 35 - 35) =     47.30317  eV     1   --> B_2  G_4 D_2'  
     e( 36 - 37) =     47.42327  eV     2   --> E    G_5 D_5   
     e( 38 - 39) =     47.76022  eV     2   --> E    G_5 D_5   
     e( 40 - 40) =     48.92277  eV     1   -->   ?

 **************************************************************************

 **************************************************************************

                    xk=(   0.00000,   0.08839,   0.00000  )

     Band symmetry, C_4v (4mm)  point group:

     e(  1 -  1) =     -5.75895  eV     1   --> A_1  G_1 D_1   
     e(  2 -  2) =      5.51859  eV     1   --> B_2  G_4 D_2'  
     e(  3 -  4) =      5.70323  eV     2   --> E    G_5 D_5   
     e(  5 -  5) =      8.34609  eV     1   --> A_1  G_1 D_1   
     e(  6 -  7) =      8.83911  eV     2   --> E    G_5 D_5   
     e(  8 -  8) =      9.41943  eV     1   --> B_2  G_4 D_2'  
     e(  9 -  9) =     13.14119  eV     1   --> B_2  G_4 D_2'  
     e( 10 - 10) =     13.68428  eV     1   --> A_2  G_2 D_1'  
     e( 11 - 11) =     14.08622  eV     1   --> A_1  G_1 D_1   
     e( 12 - 13) =     17.21054  eV     2   --> E    G_5 D_5   
     e( 14 - 14) =     17.41553  eV     1   --> B_2  G_4 D_2'  
     e( 15 - 15) =     21.65903  eV     1   --> B_2  G_4 D_2'  
     e( 16 - 17) =     27.69093  eV     2   --> E    G_5 D_5   
     e( 18 - 18) =     28.62865  eV     1   --> B_2  G_4 D_2'  
     e( 19 - 19) =     28.82393  eV     1   --> B_1  G_3 D_2   
     e( 20 - 20) =     29.05612  eV     1   --> A_1  G_1 D_1   
     e( 21 - 21) =     31.37189  eV     1   --> A_1  G_1 D_1   
     e( 22 - 23) =     31.59312  eV     2   --> E    G_5 D_5   
     e( 24 - 25) =     35.30475  eV     2   --> E    G_5 D_5   
     e( 26 - 26) =     35.55671  eV     1   --> B_1  G_3 D_2   
     e( 27 - 28) =     39.42807  eV     2   --> E    G_5 D_5   
     e( 29 - 29) =     39.42906  eV     1   --> A_1  G_1 D_1   
     e( 30 - 30) =     42.62878  eV     1   --> B_2  G_4 D_2'  
     e( 31 - 31) =     43.41089  eV     1   --> A_2  G_2 D_1'  
     e( 32 - 32) =     43.81285  eV     1   --> A_1  G_1 D_1   
     e( 33 - 33) =     44.63396  eV     1   --> A_1  G_1 D_1   
     e( 34 - 34) =     45.66378  eV     1   --> B_1  G_3 D_2   
     e( 35 - 35) =     47.35422  eV     1   --> B_2  G_4 D_2'  
     e( 36 - 37) =     47.56584  eV     2   --> E    G_5 D_5   
     e( 38 - 39) =     47.99342  eV     2   --> E    G_5 D_5   
     e( 40 - 40) =     49.10324  eV     1   -->   ?

 **************************************************************************

 **************************************************************************

                    xk=(   0.00000,   0.07071,   0.00000  )

     Band symmetry, C_4v (4mm)  point group:

     e(  1 -  1) =     -5.78300  eV     1   --> A_1  G_1 D_1   
     e(  2 -  2) =      5.66326  eV     1   --> B_2  G_4 D_2'  
     e(  3 -  4) =      5.78714  eV     2   --> E    G_5 D_5   
     e(  5 -  5) =      8.40087  eV     1   --> A_1  G_1 D_1   
     e(  6 -  7) =      8.72577  eV     2   --> E    G_5 D_5   
     e(  8 -  8) =      9.28350  eV     1   --> B_2  G_4 D_2'  
     e(  9 -  9) =     13.29278  eV     1   --> B_2  G_4 D_2'  
     e( 10 - 10) =     13.65760  eV     1   --> A_2  G_2 D_1'  
     e( 11 - 11) =     13.98375  eV     1   --> A_1  G_1 D_1   
     e( 12 - 13) =     17.16876  eV     2   --> E    G_5 D_5   
     e( 14 - 14) =     17.31247  eV     1   --> B_2  G_4 D_2'  
     e( 15 - 15) =     21.48994  eV     1   --> B_2  G_4 D_2'  
     e( 16 - 17) =     27.95694  eV     2   --> E    G_5 D_5   
     e( 18 - 18) =     28.59716  eV     1   --> B_2  G_4 D_2'  
     e( 19 - 19) =     29.06021  eV     1   --> B_1  G_3 D_2   
     e( 20 - 20) =     29.21153  eV     1   --> A_1  G_1 D_1   
     e( 21 - 21) =     31.28899  eV     1   --> A_1  G_1 D_1   
     e( 22 - 23) =     31.45219  eV     2   --> E    G_5 D_5   
     e( 24 - 25) =     35.13008  eV     2   --> E    G_5 D_5   
     e( 26 - 26) =     35.31202  eV     1   --> B_1  G_3 D_2   
     e( 27 - 27) =     39.57211  eV     1   --> A_1  G_1 D_1   
     e( 28 - 29) =     39.57391  eV     2   --> E    G_5 D_5   
     e( 30 - 30) =     42.94015  eV     1   --> B_2  G_4 D_2'  
     e( 31 - 31) =     43.46263  eV     1   --> A_2  G_2 D_1'  
     e( 32 - 32) =     43.78225  eV     1   --> A_1  G_1 D_1   
     e( 33 - 33) =     44.90897  eV     1   --> A_1  G_1 D_1   
     e( 34 - 34) =     45.68238  eV     1   --> B_1  G_3 D_2   
     e( 35 - 35) =     47.39602  eV     1   --> B_2  G_4 D_2'  
     e( 36 - 37) =     47.55529  eV     2   --> E    G_5 D_5   
     e( 38 - 39) =     48.35432  eV     2   --> E    G_5 D_5   
     e( 40 - 40) =     49.32914  eV     1   -->   ?

 **************************************************************************

 **************************************************************************

                    xk=(   0.00000,   0.05303,   0.00000  )

     Band symmetry, C_4v (4mm)  point group:

     e(  1 -  1) =     -5.80171  eV     1   --> A_1  G_1 D_1   
     e(  2 -  2) =      5.78480  eV     1   --> B_2  G_4 D_2'  
     e(  3 -  4) =      5.85750  eV     2   --> E    G_5 D_5   
     e(  5 -  5) =      8.44515  eV     1   --> A_1  G_1 D_1   
     e(  6 -  7) =      8.63247  eV     2   --> E    G_5 D_5   
     e(  8 -  8) =      9.16685  eV     1   --> B_2  G_4 D_2'  
     e(  9 -  9) =     13.42321  eV     1   --> B_2  G_4 D_2'  
     e( 10 - 10) =     13.63685  eV     1   --> A_2  G_2 D_1'  
     e( 11 - 11) =     13.90232  eV     1   --> A_1  G_1 D_1   
     e( 12 - 13) =     17.13623  eV     2   --> E    G_5 D_5   
     e( 14 - 14) =     17.22352  eV     1   --> B_2  G_4 D_2'  
     e( 15 - 15) =     21.35635  eV     1   --> B_2  G_4 D_2'  
     e( 16 - 17) =     28.19009  eV     2   --> E    G_5 D_5   
     e( 18 - 18) =     28.57288  eV     1   --> B_2  G_4 D_2'  
     e( 19 - 19) =     29.25874  eV     1   --> B_1  G_3 D_2   
     e( 20 - 20) =     29.34445  eV     1   --> A_1  G_1 D_1   
     e( 21 - 21) =     31.21257  eV     1   --> A_1  G_1 D_1   
     e( 22 - 23) =     31.31707  eV     2   --> E    G_5 D_5   
     e( 24 - 25) =     34.99324  eV     2   --> E    G_5 D_5   
     e( 26 - 26) =     35.10629  eV     1   --> B_1  G_3 D_2   
     e( 27 - 27) =     39.68675  eV     1   --> A_1  G_1 D_1   
     e( 28 - 29) =     39.68912  eV     2   --> E    G_5 D_5   
     e( 30 - 30) =     43.19908  eV     1   --> B_2  G_4 D_2'  
     e( 31 - 31) =     43.50406  eV     1   --> A_2  G_2 D_1'  
     e( 32 - 32) =     43.71886  eV     1   --> A_1  G_1 D_1   
     e( 33 - 33) =     45.20865  eV     1   --> A_1  G_1 D_1   
     e( 34 - 34) =     45.69882  eV     1   --> B_1  G_3 D_2   
     e( 35 - 35) =     47.42822  eV     1   --> B_2  G_4 D_2'  
     e( 36 - 37) =     47.52369  eV     2   --> E    G_5 D_5   
     e( 38 - 39) =     48.70085  eV     2   --> E    G_5 D_5   
     e( 40 - 40) =     49.34964  eV     1   --> A_1  G_1 D_1   

 **************************************************************************

 **************************************************************************

                    xk=(   0.00000,   0.03536,   0.00000  )

     Band symmetry, C_4v (4mm)  point group:

     e(  1 -  1) =     -5.81508  eV     1   --> A_1  G_1 D_1   
     e(  2 -  2) =      5.87756  eV     1   --> B_2  G_4 D_2'  
     e(  3 -  4) =      5.91099  eV     2   --> E    G_5 D_5   
     e(  5 -  5) =      8.47774  eV     1   --> A_1  G_1 D_1   
     e(  6 -  7) =      8.56258  eV     2   --> E    G_5 D_5   
     e(  8 -  8) =      9.07665  eV     1   --> B_2  G_4 D_2'  
     e(  9 -  9) =     13.52413  eV     1   --> B_2  G_4 D_2'  
     e( 10 - 10) =     13.62203  eV     1   --> A_2  G_2 D_1'  
     e( 11 - 11) =     13.84317  eV     1   --> A_1  G_1 D_1   
     e( 12 - 13) =     17.11297  eV     2   --> E    G_5 D_5   
     e( 14 - 14) =     17.15411  eV     1   --> B_2  G_4 D_2'  
     e( 15 - 15) =     21.25984  eV     1   --> B_2  G_4 D_2'  
     e( 16 - 17) =     28.37640  eV     2   --> E    G_5 D_5   
     e( 18 - 18) =     28.55564  eV     1   --> B_2  G_4 D_2'  
     e( 19 - 19) =     29.41019  eV     1   --> B_1  G_3 D_2   
     e( 20 - 20) =     29.44819  eV     1   --> A_1  G_1 D_1   
     e( 21 - 21) =     31.14925  eV     1   --> A_1  G_1 D_1   
     e( 22 - 23) =     31.20096  eV     2   --> E    G_5 D_5   
     e( 24 - 25) =     34.89520  eV     2   --> E    G_5 D_5   
     e( 26 - 26) =     34.94935  eV     1   --> B_1  G_3 D_2   
     e( 27 - 27) =     39.77083  eV     1   --> A_1  G_1 D_1   
     e( 28 - 29) =     39.77240  eV     2   --> E    G_5 D_5   
     e( 30 - 30) =     43.39482  eV     1   --> B_2  G_4 D_2'  
     e( 31 - 31) =     43.53433  eV     1   --> A_2  G_2 D_1'  
     e( 32 - 32) =     43.66086  eV     1   --> A_1  G_1 D_1   
     e( 33 - 33) =     45.47257  eV     1   --> A_1  G_1 D_1   
     e( 34 - 34) =     45.71166  eV     1   --> B_1  G_3 D_2   
     e( 35 - 35) =     47.45081  eV     1   --> B_2  G_4 D_2'  
     e( 36 - 37) =     47.49463  eV     2   --> E    G_5 D_5   
     e( 38 - 39) =     48.99277  eV     2   --> E    G_5 D_5   
     e( 40 - 40) =     49.31354  eV     1   --> A_1  G_1 D_1   

 **************************************************************************

 **************************************************************************

                    xk=(   0.00000,   0.01768,   0.00000  )

     Band symmetry, C_4v (4mm)  point group:

     e(  1 -  1) =     -5.82311  eV     1   --> A_1  G_1 D_1   
     e(  2 -  2) =      5.93602  eV     1   --> B_2  G_4 D_2'  
     e(  3 -  4) =      5.94457  eV     2   --> E    G_5 D_5   
     e(  5 -  5) =      8.49769  eV     1   --> A_1  G_1 D_1   
     e(  6 -  7) =      8.51916  eV     2   --> E    G_5 D_5   
     e(  8 -  8) =      9.01938  eV     1   --> B_2  G_4 D_2'  
     e(  9 -  9) =     13.58819  eV     1   --> B_2  G_4 D_2'  
     e( 10 - 10) =     13.61314  eV     1   --> A_2  G_2 D_1'  
     e( 11 - 11) =     13.80726  eV     1   --> A_1  G_1 D_1   
     e( 12 - 13) =     17.09900  eV     2   --> E    G_5 D_5   
     e( 14 - 14) =     17.10967  eV     1   --> B_2  G_4 D_2'  
     e( 15 - 15) =     21.20151  eV     1   --> B_2  G_4 D_2'  
     e( 16 - 17) =     28.49888  eV     2   --> E    G_5 D_5   
     e( 18 - 18) =     28.54534  eV     1   --> B_2  G_4 D_2'  
     e( 19 - 19) =     29.50558  eV     1   --> B_1  G_3 D_2   
     e( 20 - 20) =     29.51502  eV     1   --> A_1  G_1 D_1   
     e( 21 - 21) =     31.10668  eV     1   --> A_1  G_1 D_1   
     e( 22 - 23) =     31.12058  eV     2   --> E    G_5 D_5   
     e( 24 - 25) =     34.83634  eV     2   --> E    G_5 D_5   
     e( 26 - 26) =     34.85052  eV     1   --> B_1  G_3 D_2   
     e( 27 - 27) =     39.82229  eV     1   --> A_1  G_1 D_1   
     e( 28 - 29) =     39.82277  eV     2   --> E    G_5 D_5   
     e( 30 - 30) =     43.51724  eV     1   --> B_2  G_4 D_2'  
     e( 31 - 31) =     43.55277  eV     1   --> A_2  G_2 D_1'  
     e( 32 - 32) =     43.62223  eV     1   --> A_1  G_1 D_1   
     e( 33 - 33) =     45.65616  eV     1   --> A_1  G_1 D_1   
     e( 34 - 34) =     45.71981  eV     1   --> B_1  G_3 D_2   
     e( 35 - 35) =     47.46410  eV     1   --> B_2  G_4 D_2'  
     e( 36 - 37) =     47.47523  eV     2   --> E    G_5 D_5   
     e( 38 - 39) =     49.20067  eV     2   --> E    G_5 D_5   
     e( 40 - 40) =     49.28962  eV     1   --> A_1  G_1 D_1   

 **************************************************************************

 **************************************************************************

                    xk=(   0.00000,   0.00000,   0.00000  )

     point group O_h (m-3m) 
     there are 10 classes
     the character table:

       E     8C3   3C2   6C4   6C2'  i     8S6   3s_h  6S4   6s_d 
A_1g   1.00  1.00  1.00  1.00  1.00  1.00  1.00  1.00  1.00  1.00
A_2g   1.00  1.00  1.00 -1.00 -1.00  1.00  1.00  1.00 -1.00 -1.00
E_g    2.00 -1.00  2.00  0.00  0.00  2.00 -1.00  2.00  0.00  0.00
T_1g   3.00  0.00 -1.00  1.00 -1.00  3.00  0.00 -1.00  1.00 -1.00
T_2g   3.00  0.00 -1.00 -1.00  1.00  3.00  0.00 -1.00 -1.00  1.00
A_1u   1.00  1.00  1.00  1.00  1.00 -1.00 -1.00 -1.00 -1.00 -1.00
A_2u   1.00  1.00  1.00 -1.00 -1.00 -1.00 -1.00 -1.00  1.00  1.00
E_u    2.00 -1.00  2.00  0.00  0.00 -2.00  1.00 -2.00  0.00  0.00
T_1u   3.00  0.00 -1.00  1.00 -1.00 -3.00  0.00  1.00 -1.00  1.00
T_2u   3.00  0.00 -1.00 -1.00  1.00 -3.00  0.00  1.00  1.00 -1.00

     the symmetry operations in each class and the name of the first element:

     E        1
                                                                 
     8C3     17   19   20   18   24   21   22   23
                                                                 
     3C2      2    4    3
                                                                 
     6C4      7    8   15   16   12   11
                                                                 
     6C2'     5    6   14   13   10    9
                                                                 
     i       25
                                                                 
     8S6     41   43   44   42   48   45   46   47
                                                                 
     3s_h    26   28   27
                                                                 
     6S4     31   32   39   40   36   35
                                                                 
     6s_d    29   30   38   37   34   33
                                                                 

     Band symmetry, O_h (m-3m)  point group:

     e(  1 -  1) =     -5.82578  eV     1   --> A_1g G_1   G_1+
     e(  2 -  4) =      5.95603  eV     3   --> T_2g G_25' G_5+
     e(  5 -  7) =      8.50441  eV     3   --> T_1u G_15  G_4-
     e(  8 -  8) =      8.99971  eV     1   --> A_2u G_2'  G_2-
     e(  9 - 10) =     13.61018  eV     2   --> E_u  G_12' G_3-
     e( 11 - 11) =     13.79522  eV     1   --> A_1g G_1   G_1+
     e( 12 - 14) =     17.09435  eV     3   --> T_2g G_25' G_5+
     e( 15 - 15) =     21.18200  eV     1   --> A_2u G_2'  G_2-
     e( 16 - 18) =     28.54192  eV     3   --> T_2g G_25' G_5+
     e( 19 - 20) =     29.53822  eV     2   --> E_g  G_12  G_3+
     e( 21 - 23) =     31.09157  eV     3   --> T_1u G_15  G_4-
     e( 24 - 26) =     34.81672  eV     3   --> T_2u G_25  G_5-
     e( 27 - 29) =     39.83963  eV     3   --> T_1u G_15  G_4-
     e( 30 - 31) =     43.55897  eV     2   --> E_u  G_12' G_3-
     e( 32 - 32) =     43.60880  eV     1   --> A_1g G_1   G_1+
     e( 33 - 34) =     45.72260  eV     2   --> E_g  G_12  G_3+
     e( 35 - 37) =     47.46847  eV     3   --> T_2g G_25' G_5+
     e( 38 - 40) =     49.28079  eV     3   --> T_1u G_15  G_4-

 **************************************************************************
 
     BANDS        :     19.24s CPU     23.84s WALL

 
   This run was terminated on:  14:32:21  16Jan2024            

=------------------------------------------------------------------------------=
   JOB DONE.
=------------------------------------------------------------------------------=
