[0] MPI startup(): Intel(R) MPI Library, Version 2021.6  Build 20220227 (id: 28877f3f32)
[0] MPI startup(): Copyright (C) 2003-2022 Intel Corporation.  All rights reserved.
[0] MPI startup(): library kind: release
[0] MPI startup(): libfabric version: 1.13.2rc1-impi
[0] MPI startup(): libfabric provider: psm2
[0] MPI startup(): File "/opt/intel/oneapi/mpi/2021.6.0/etc/tuning_icx_shm-ofi_psm2.dat" not found
[0] MPI startup(): Load tuning file: "/opt/intel/oneapi/mpi/2021.6.0/etc/tuning_icx_shm-ofi.dat"
[0] MPI startup(): File "/opt/intel/oneapi/mpi/2021.6.0/etc/tuning_icx_shm-ofi.dat" not found
[0] MPI startup(): Load tuning file: "/opt/intel/oneapi/mpi/2021.6.0/etc/tuning_clx-ap_shm-ofi.dat"
[0] MPI startup(): Rank    Pid      Node name  Pin cpu
[0] MPI startup(): 0       593910   n008.hpc   {0}
[0] MPI startup(): 1       593911   n008.hpc   {1}
[0] MPI startup(): 2       593912   n008.hpc   {2}
[0] MPI startup(): 3       593913   n008.hpc   {3}
[0] MPI startup(): 4       593914   n008.hpc   {4}
[0] MPI startup(): 5       593915   n008.hpc   {5}
[0] MPI startup(): 6       593916   n008.hpc   {6}
[0] MPI startup(): 7       593917   n008.hpc   {7}
[0] MPI startup(): 8       593918   n008.hpc   {8}
[0] MPI startup(): 9       593919   n008.hpc   {9}
[0] MPI startup(): 10      593920   n008.hpc   {10}
[0] MPI startup(): 11      593921   n008.hpc   {11}
[0] MPI startup(): 12      593922   n008.hpc   {12}
[0] MPI startup(): 13      593923   n008.hpc   {13}
[0] MPI startup(): 14      593924   n008.hpc   {14}
[0] MPI startup(): 15      593925   n008.hpc   {15}
[0] MPI startup(): I_MPI_ROOT=/opt/intel/oneapi/mpi/2021.6.0
[0] MPI startup(): I_MPI_MPIRUN=mpirun
[0] MPI startup(): I_MPI_HYDRA_TOPOLIB=hwloc
[0] MPI startup(): I_MPI_HYDRA_BOOTSTRAP=slurm
[0] MPI startup(): I_MPI_INTERNAL_MEM_POLICY=default
[0] MPI startup(): I_MPI_DEBUG=5

     Program PWSCF v.7.2 starts on 16Jan2024 at 14:30:24 

     This program is part of the open-source Quantum ESPRESSO suite
     for quantum simulation of materials; please cite
         "P. Giannozzi et al., J. Phys.:Condens. Matter 21 395502 (2009);
         "P. Giannozzi et al., J. Phys.:Condens. Matter 29 465901 (2017);
         "P. Giannozzi et al., J. Chem. Phys. 152 154105 (2020);
          URL http://www.quantum-espresso.org", 
     in publications or presentations arising from this work. More details at
     http://www.quantum-espresso.org/quote

     Parallel version (MPI), running on    16 processors

     MPI processes distributed on     1 nodes
     106827 MiB available memory on the printing compute node when the environment starts
 
     Waiting for input...
     Reading input from standard input

     Current dimensions of program PWSCF are:
     Max number of different atomic species (ntypx) = 10
     Max number of k-points (npk) =  40000
     Max angular momentum in pseudopotentials (lmaxx) =  4
     Message from routine input:
     WARNING: "startingwfc" set to atomic+random may spoil restart
     Message from routine setup:
     no reason to have ecutrho>4*ecutwfc
     Message from routine setup:
     using ibrav=0 with symmetry is DISCOURAGED, use correct ibrav instead
 
     R & G space division:  proc/nbgrp/npool/nimage =      16
     Subspace diagonalization in iterative solution of the eigenvalue problem:
     a serial algorithm will be used

 
     Parallelization info
     --------------------
     sticks:   dense  smooth     PW     G-vecs:    dense   smooth      PW
     Min         147      73     20                 4733     1675     250
     Max         151      74     22                 4735     1676     252
     Sum        2371    1177    337                75745    26813    4015
 
     Using Slab Decomposition
 


     bravais-lattice index     =            0
     lattice parameter (alat)  =       7.3195  a.u.
     unit-cell volume          =     277.2847 (a.u.)^3
     number of atoms/cell      =            2
     number of atomic types    =            1
     number of electrons       =         8.00
     number of Kohn-Sham states=           40
     kinetic-energy cutoff     =      80.0000  Ry
     charge density cutoff     =     640.0000  Ry
     Exchange-correlation= PBE
                           (   1   4   3   4   0   0   0)

     celldm(1)=   7.319481  celldm(2)=   0.000000  celldm(3)=   0.000000
     celldm(4)=   0.000000  celldm(5)=   0.000000  celldm(6)=   0.000000

     crystal axes: (cart. coord. in units of alat)
               a(1) = (   0.707107   0.707107   0.000000 )  
               a(2) = (   0.000000   0.707107   0.707107 )  
               a(3) = (   0.707107   0.000000   0.707107 )  

     reciprocal axes: (cart. coord. in units 2 pi/alat)
               b(1) = (  0.707107  0.707107 -0.707107 )  
               b(2) = ( -0.707107  0.707107  0.707107 )  
               b(3) = (  0.707107 -0.707107  0.707107 )  


     PseudoPot. # 1 for Si read from file:
     ../pseudo/Si_ONCV_PBE-1.2.upf
     MD5 check sum: 7f029a58b69e3aa87b46a36c608bf45e
     Pseudo is Norm-conserving, Zval =  4.0
     Generated using ONCVPSP code by D. R. Hamann
     Using radial grid of  602 points,  4 beta functions with: 
                l(1) =   0
                l(2) =   0
                l(3) =   1
                l(4) =   1

     atomic species   valence    mass     pseudopotential
        Si             4.00    28.08550     Si( 1.00)

     48 Sym. Ops., with inversion, found (24 have fractional translation)


                                    s                        frac. trans.

      isym =  1     identity                                     

 cryst.   s( 1) = (     1          0          0      )
                  (     0          1          0      )
                  (     0          0          1      )

 cart.    s( 1) = (  1.0000000  0.0000000  0.0000000 )
                  (  0.0000000  1.0000000  0.0000000 )
                  (  0.0000000  0.0000000  1.0000000 )


      isym =  2     180 deg rotation - cart. axis [0,0,1]        

 cryst.   s( 2) = (    -1          0          0      )
                  (    -1          0          1      )
                  (    -1          1          0      )

 cart.    s( 2) = ( -1.0000000  0.0000000  0.0000000 )
                  (  0.0000000 -1.0000000  0.0000000 )
                  (  0.0000000  0.0000000  1.0000000 )


      isym =  3     180 deg rotation - cart. axis [0,1,0]        

 cryst.   s( 3) = (     0          1         -1      )
                  (     1          0         -1      )
                  (     0          0         -1      )

 cart.    s( 3) = ( -1.0000000  0.0000000  0.0000000 )
                  (  0.0000000  1.0000000  0.0000000 )
                  (  0.0000000  0.0000000 -1.0000000 )


      isym =  4     180 deg rotation - cart. axis [1,0,0]        

 cryst.   s( 4) = (     0         -1          1      )
                  (     0         -1          0      )
                  (     1         -1          0      )

 cart.    s( 4) = (  1.0000000  0.0000000  0.0000000 )
                  (  0.0000000 -1.0000000  0.0000000 )
                  (  0.0000000  0.0000000 -1.0000000 )


      isym =  5     180 deg rotation - cart. axis [1,1,0]        

 cryst.   s( 5) = (     1          0          0      )    f =( -0.2500000 )
                  (     1         -1          0      )       ( -0.2500000 )
                  (     1          0         -1      )       ( -0.2500000 )

 cart.    s( 5) = (  0.0000000  1.0000000  0.0000000 )    f =( -0.3535534 )
                  (  1.0000000  0.0000000  0.0000000 )       ( -0.3535534 )
                  (  0.0000000  0.0000000 -1.0000000 )       ( -0.3535534 )


      isym =  6     180 deg rotation - cart. axis [1,-1,0]       

 cryst.   s( 6) = (    -1          0          0      )    f =( -0.2500000 )
                  (     0          0         -1      )       ( -0.2500000 )
                  (     0         -1          0      )       ( -0.2500000 )

 cart.    s( 6) = (  0.0000000 -1.0000000  0.0000000 )    f =( -0.3535534 )
                  ( -1.0000000  0.0000000  0.0000000 )       ( -0.3535534 )
                  (  0.0000000  0.0000000 -1.0000000 )       ( -0.3535534 )


      isym =  7      90 deg rotation - cart. axis [0,0,-1]       

 cryst.   s( 7) = (     0         -1          1      )    f =( -0.2500000 )
                  (     0          0          1      )       ( -0.2500000 )
                  (    -1          0          1      )       ( -0.2500000 )

 cart.    s( 7) = (  0.0000000  1.0000000  0.0000000 )    f =( -0.3535534 )
                  ( -1.0000000  0.0000000  0.0000000 )       ( -0.3535534 )
                  (  0.0000000  0.0000000  1.0000000 )       ( -0.3535534 )


      isym =  8      90 deg rotation - cart. axis [0,0,1]        

 cryst.   s( 8) = (     0          1         -1      )    f =( -0.2500000 )
                  (    -1          1          0      )       ( -0.2500000 )
                  (     0          1          0      )       ( -0.2500000 )

 cart.    s( 8) = (  0.0000000 -1.0000000  0.0000000 )    f =( -0.3535534 )
                  (  1.0000000  0.0000000  0.0000000 )       ( -0.3535534 )
                  (  0.0000000  0.0000000  1.0000000 )       ( -0.3535534 )


      isym =  9     180 deg rotation - cart. axis [1,0,1]        

 cryst.   s( 9) = (    -1          0          1      )    f =( -0.2500000 )
                  (     0         -1          1      )       ( -0.2500000 )
                  (     0          0          1      )       ( -0.2500000 )

 cart.    s( 9) = (  0.0000000  0.0000000  1.0000000 )    f =( -0.3535534 )
                  (  0.0000000 -1.0000000  0.0000000 )       ( -0.3535534 )
                  (  1.0000000  0.0000000  0.0000000 )       ( -0.3535534 )


      isym = 10     180 deg rotation - cart. axis [-1,0,1]       

 cryst.   s(10) = (     0         -1          0      )    f =( -0.2500000 )
                  (    -1          0          0      )       ( -0.2500000 )
                  (     0          0         -1      )       ( -0.2500000 )

 cart.    s(10) = (  0.0000000  0.0000000 -1.0000000 )    f =( -0.3535534 )
                  (  0.0000000 -1.0000000  0.0000000 )       ( -0.3535534 )
                  ( -1.0000000  0.0000000  0.0000000 )       ( -0.3535534 )


      isym = 11      90 deg rotation - cart. axis [0,1,0]        

 cryst.   s(11) = (     1          0         -1      )    f =( -0.2500000 )
                  (     1          0          0      )       ( -0.2500000 )
                  (     1         -1          0      )       ( -0.2500000 )

 cart.    s(11) = (  0.0000000  0.0000000  1.0000000 )    f =( -0.3535534 )
                  (  0.0000000  1.0000000  0.0000000 )       ( -0.3535534 )
                  ( -1.0000000  0.0000000  0.0000000 )       ( -0.3535534 )


      isym = 12      90 deg rotation - cart. axis [0,-1,0]       

 cryst.   s(12) = (     0          1          0      )    f =( -0.2500000 )
                  (     0          1         -1      )       ( -0.2500000 )
                  (    -1          1          0      )       ( -0.2500000 )

 cart.    s(12) = (  0.0000000  0.0000000 -1.0000000 )    f =( -0.3535534 )
                  (  0.0000000  1.0000000  0.0000000 )       ( -0.3535534 )
                  (  1.0000000  0.0000000  0.0000000 )       ( -0.3535534 )


      isym = 13     180 deg rotation - cart. axis [0,1,1]        

 cryst.   s(13) = (    -1          1          0      )    f =( -0.2500000 )
                  (     0          1          0      )       ( -0.2500000 )
                  (     0          1         -1      )       ( -0.2500000 )

 cart.    s(13) = ( -1.0000000  0.0000000  0.0000000 )    f =( -0.3535534 )
                  (  0.0000000  0.0000000  1.0000000 )       ( -0.3535534 )
                  (  0.0000000  1.0000000  0.0000000 )       ( -0.3535534 )


      isym = 14     180 deg rotation - cart. axis [0,1,-1]       

 cryst.   s(14) = (     0          0         -1      )    f =( -0.2500000 )
                  (     0         -1          0      )       ( -0.2500000 )
                  (    -1          0          0      )       ( -0.2500000 )

 cart.    s(14) = ( -1.0000000  0.0000000  0.0000000 )    f =( -0.3535534 )
                  (  0.0000000  0.0000000 -1.0000000 )       ( -0.3535534 )
                  (  0.0000000 -1.0000000  0.0000000 )       ( -0.3535534 )


      isym = 15      90 deg rotation - cart. axis [-1,0,0]       

 cryst.   s(15) = (     1         -1          0      )    f =( -0.2500000 )
                  (     1          0         -1      )       ( -0.2500000 )
                  (     1          0          0      )       ( -0.2500000 )

 cart.    s(15) = (  1.0000000  0.0000000  0.0000000 )    f =( -0.3535534 )
                  (  0.0000000  0.0000000  1.0000000 )       ( -0.3535534 )
                  (  0.0000000 -1.0000000  0.0000000 )       ( -0.3535534 )


      isym = 16      90 deg rotation - cart. axis [1,0,0]        

 cryst.   s(16) = (     0          0          1      )    f =( -0.2500000 )
                  (    -1          0          1      )       ( -0.2500000 )
                  (     0         -1          1      )       ( -0.2500000 )

 cart.    s(16) = (  1.0000000  0.0000000  0.0000000 )    f =( -0.3535534 )
                  (  0.0000000  0.0000000 -1.0000000 )       ( -0.3535534 )
                  (  0.0000000  1.0000000  0.0000000 )       ( -0.3535534 )


      isym = 17     120 deg rotation - cart. axis [-1,-1,-1]     

 cryst.   s(17) = (     0          0          1      )
                  (     1          0          0      )
                  (     0          1          0      )

 cart.    s(17) = (  0.0000000  1.0000000  0.0000000 )
                  (  0.0000000  0.0000000  1.0000000 )
                  (  1.0000000  0.0000000  0.0000000 )


      isym = 18     120 deg rotation - cart. axis [-1,1,1]       

 cryst.   s(18) = (     0          0         -1      )
                  (     0          1         -1      )
                  (     1          0         -1      )

 cart.    s(18) = (  0.0000000 -1.0000000  0.0000000 )
                  (  0.0000000  0.0000000  1.0000000 )
                  ( -1.0000000  0.0000000  0.0000000 )


      isym = 19     120 deg rotation - cart. axis [1,1,-1]       

 cryst.   s(19) = (     1         -1          0      )
                  (     0         -1          1      )
                  (     0         -1          0      )

 cart.    s(19) = (  0.0000000  1.0000000  0.0000000 )
                  (  0.0000000  0.0000000 -1.0000000 )
                  ( -1.0000000  0.0000000  0.0000000 )


      isym = 20     120 deg rotation - cart. axis [1,-1,1]       

 cryst.   s(20) = (    -1          1          0      )
                  (    -1          0          0      )
                  (    -1          0          1      )

 cart.    s(20) = (  0.0000000 -1.0000000  0.0000000 )
                  (  0.0000000  0.0000000 -1.0000000 )
                  (  1.0000000  0.0000000  0.0000000 )


      isym = 21     120 deg rotation - cart. axis [1,1,1]        

 cryst.   s(21) = (     0          1          0      )
                  (     0          0          1      )
                  (     1          0          0      )

 cart.    s(21) = (  0.0000000  0.0000000  1.0000000 )
                  (  1.0000000  0.0000000  0.0000000 )
                  (  0.0000000  1.0000000  0.0000000 )


      isym = 22     120 deg rotation - cart. axis [-1,1,-1]      

 cryst.   s(22) = (     0         -1          0      )
                  (     1         -1          0      )
                  (     0         -1          1      )

 cart.    s(22) = (  0.0000000  0.0000000  1.0000000 )
                  ( -1.0000000  0.0000000  0.0000000 )
                  (  0.0000000 -1.0000000  0.0000000 )


      isym = 23     120 deg rotation - cart. axis [1,-1,-1]      

 cryst.   s(23) = (    -1          0          1      )
                  (    -1          1          0      )
                  (    -1          0          0      )

 cart.    s(23) = (  0.0000000  0.0000000 -1.0000000 )
                  ( -1.0000000  0.0000000  0.0000000 )
                  (  0.0000000  1.0000000  0.0000000 )


      isym = 24     120 deg rotation - cart. axis [-1,-1,1]      

 cryst.   s(24) = (     1          0         -1      )
                  (     0          0         -1      )
                  (     0          1         -1      )

 cart.    s(24) = (  0.0000000  0.0000000 -1.0000000 )
                  (  1.0000000  0.0000000  0.0000000 )
                  (  0.0000000 -1.0000000  0.0000000 )


      isym = 25     inversion                                    

 cryst.   s(25) = (    -1          0          0      )    f =( -0.2500000 )
                  (     0         -1          0      )       ( -0.2500000 )
                  (     0          0         -1      )       ( -0.2500000 )

 cart.    s(25) = ( -1.0000000  0.0000000  0.0000000 )    f =( -0.3535534 )
                  (  0.0000000 -1.0000000  0.0000000 )       ( -0.3535534 )
                  (  0.0000000  0.0000000 -1.0000000 )       ( -0.3535534 )


      isym = 26     inv. 180 deg rotation - cart. axis [0,0,1]   

 cryst.   s(26) = (     1          0          0      )    f =( -0.2500000 )
                  (     1          0         -1      )       ( -0.2500000 )
                  (     1         -1          0      )       ( -0.2500000 )

 cart.    s(26) = (  1.0000000  0.0000000  0.0000000 )    f =( -0.3535534 )
                  (  0.0000000  1.0000000  0.0000000 )       ( -0.3535534 )
                  (  0.0000000  0.0000000 -1.0000000 )       ( -0.3535534 )


      isym = 27     inv. 180 deg rotation - cart. axis [0,1,0]   

 cryst.   s(27) = (     0         -1          1      )    f =( -0.2500000 )
                  (    -1          0          1      )       ( -0.2500000 )
                  (     0          0          1      )       ( -0.2500000 )

 cart.    s(27) = (  1.0000000  0.0000000  0.0000000 )    f =( -0.3535534 )
                  (  0.0000000 -1.0000000  0.0000000 )       ( -0.3535534 )
                  (  0.0000000  0.0000000  1.0000000 )       ( -0.3535534 )


      isym = 28     inv. 180 deg rotation - cart. axis [1,0,0]   

 cryst.   s(28) = (     0          1         -1      )    f =( -0.2500000 )
                  (     0          1          0      )       ( -0.2500000 )
                  (    -1          1          0      )       ( -0.2500000 )

 cart.    s(28) = ( -1.0000000  0.0000000  0.0000000 )    f =( -0.3535534 )
                  (  0.0000000  1.0000000  0.0000000 )       ( -0.3535534 )
                  (  0.0000000  0.0000000  1.0000000 )       ( -0.3535534 )


      isym = 29     inv. 180 deg rotation - cart. axis [1,1,0]   

 cryst.   s(29) = (    -1          0          0      )
                  (    -1          1          0      )
                  (    -1          0          1      )

 cart.    s(29) = (  0.0000000 -1.0000000  0.0000000 )
                  ( -1.0000000  0.0000000  0.0000000 )
                  (  0.0000000  0.0000000  1.0000000 )


      isym = 30     inv. 180 deg rotation - cart. axis [1,-1,0]  

 cryst.   s(30) = (     1          0          0      )
                  (     0          0          1      )
                  (     0          1          0      )

 cart.    s(30) = (  0.0000000  1.0000000  0.0000000 )
                  (  1.0000000  0.0000000  0.0000000 )
                  (  0.0000000  0.0000000  1.0000000 )


      isym = 31     inv.  90 deg rotation - cart. axis [0,0,-1]  

 cryst.   s(31) = (     0          1         -1      )
                  (     0          0         -1      )
                  (     1          0         -1      )

 cart.    s(31) = (  0.0000000 -1.0000000  0.0000000 )
                  (  1.0000000  0.0000000  0.0000000 )
                  (  0.0000000  0.0000000 -1.0000000 )


      isym = 32     inv.  90 deg rotation - cart. axis [0,0,1]   

 cryst.   s(32) = (     0         -1          1      )
                  (     1         -1          0      )
                  (     0         -1          0      )

 cart.    s(32) = (  0.0000000  1.0000000  0.0000000 )
                  ( -1.0000000  0.0000000  0.0000000 )
                  (  0.0000000  0.0000000 -1.0000000 )


      isym = 33     inv. 180 deg rotation - cart. axis [1,0,1]   

 cryst.   s(33) = (     1          0         -1      )
                  (     0          1         -1      )
                  (     0          0         -1      )

 cart.    s(33) = (  0.0000000  0.0000000 -1.0000000 )
                  (  0.0000000  1.0000000  0.0000000 )
                  ( -1.0000000  0.0000000  0.0000000 )


      isym = 34     inv. 180 deg rotation - cart. axis [-1,0,1]  

 cryst.   s(34) = (     0          1          0      )
                  (     1          0          0      )
                  (     0          0          1      )

 cart.    s(34) = (  0.0000000  0.0000000  1.0000000 )
                  (  0.0000000  1.0000000  0.0000000 )
                  (  1.0000000  0.0000000  0.0000000 )


      isym = 35     inv.  90 deg rotation - cart. axis [0,1,0]   

 cryst.   s(35) = (    -1          0          1      )
                  (    -1          0          0      )
                  (    -1          1          0      )

 cart.    s(35) = (  0.0000000  0.0000000 -1.0000000 )
                  (  0.0000000 -1.0000000  0.0000000 )
                  (  1.0000000  0.0000000  0.0000000 )


      isym = 36     inv.  90 deg rotation - cart. axis [0,-1,0]  

 cryst.   s(36) = (     0         -1          0      )
                  (     0         -1          1      )
                  (     1         -1          0      )

 cart.    s(36) = (  0.0000000  0.0000000  1.0000000 )
                  (  0.0000000 -1.0000000  0.0000000 )
                  ( -1.0000000  0.0000000  0.0000000 )


      isym = 37     inv. 180 deg rotation - cart. axis [0,1,1]   

 cryst.   s(37) = (     1         -1          0      )
                  (     0         -1          0      )
                  (     0         -1          1      )

 cart.    s(37) = (  1.0000000  0.0000000  0.0000000 )
                  (  0.0000000  0.0000000 -1.0000000 )
                  (  0.0000000 -1.0000000  0.0000000 )


      isym = 38     inv. 180 deg rotation - cart. axis [0,1,-1]  

 cryst.   s(38) = (     0          0          1      )
                  (     0          1          0      )
                  (     1          0          0      )

 cart.    s(38) = (  1.0000000  0.0000000  0.0000000 )
                  (  0.0000000  0.0000000  1.0000000 )
                  (  0.0000000  1.0000000  0.0000000 )


      isym = 39     inv.  90 deg rotation - cart. axis [-1,0,0]  

 cryst.   s(39) = (    -1          1          0      )
                  (    -1          0          1      )
                  (    -1          0          0      )

 cart.    s(39) = ( -1.0000000  0.0000000  0.0000000 )
                  (  0.0000000  0.0000000 -1.0000000 )
                  (  0.0000000  1.0000000  0.0000000 )


      isym = 40     inv.  90 deg rotation - cart. axis [1,0,0]   

 cryst.   s(40) = (     0          0         -1      )
                  (     1          0         -1      )
                  (     0          1         -1      )

 cart.    s(40) = ( -1.0000000  0.0000000  0.0000000 )
                  (  0.0000000  0.0000000  1.0000000 )
                  (  0.0000000 -1.0000000  0.0000000 )


      isym = 41     inv. 120 deg rotation - cart. axis [-1,-1,-1]

 cryst.   s(41) = (     0          0         -1      )    f =( -0.2500000 )
                  (    -1          0          0      )       ( -0.2500000 )
                  (     0         -1          0      )       ( -0.2500000 )

 cart.    s(41) = (  0.0000000 -1.0000000  0.0000000 )    f =( -0.3535534 )
                  (  0.0000000  0.0000000 -1.0000000 )       ( -0.3535534 )
                  ( -1.0000000  0.0000000  0.0000000 )       ( -0.3535534 )


      isym = 42     inv. 120 deg rotation - cart. axis [-1,1,1]  

 cryst.   s(42) = (     0          0          1      )    f =( -0.2500000 )
                  (     0         -1          1      )       ( -0.2500000 )
                  (    -1          0          1      )       ( -0.2500000 )

 cart.    s(42) = (  0.0000000  1.0000000  0.0000000 )    f =( -0.3535534 )
                  (  0.0000000  0.0000000 -1.0000000 )       ( -0.3535534 )
                  (  1.0000000  0.0000000  0.0000000 )       ( -0.3535534 )


      isym = 43     inv. 120 deg rotation - cart. axis [1,1,-1]  

 cryst.   s(43) = (    -1          1          0      )    f =( -0.2500000 )
                  (     0          1         -1      )       ( -0.2500000 )
                  (     0          1          0      )       ( -0.2500000 )

 cart.    s(43) = (  0.0000000 -1.0000000  0.0000000 )    f =( -0.3535534 )
                  (  0.0000000  0.0000000  1.0000000 )       ( -0.3535534 )
                  (  1.0000000  0.0000000  0.0000000 )       ( -0.3535534 )


      isym = 44     inv. 120 deg rotation - cart. axis [1,-1,1]  

 cryst.   s(44) = (     1         -1          0      )    f =( -0.2500000 )
                  (     1          0          0      )       ( -0.2500000 )
                  (     1          0         -1      )       ( -0.2500000 )

 cart.    s(44) = (  0.0000000  1.0000000  0.0000000 )    f =( -0.3535534 )
                  (  0.0000000  0.0000000  1.0000000 )       ( -0.3535534 )
                  ( -1.0000000  0.0000000  0.0000000 )       ( -0.3535534 )


      isym = 45     inv. 120 deg rotation - cart. axis [1,1,1]   

 cryst.   s(45) = (     0         -1          0      )    f =( -0.2500000 )
                  (     0          0         -1      )       ( -0.2500000 )
                  (    -1          0          0      )       ( -0.2500000 )

 cart.    s(45) = (  0.0000000  0.0000000 -1.0000000 )    f =( -0.3535534 )
                  ( -1.0000000  0.0000000  0.0000000 )       ( -0.3535534 )
                  (  0.0000000 -1.0000000  0.0000000 )       ( -0.3535534 )


      isym = 46     inv. 120 deg rotation - cart. axis [-1,1,-1] 

 cryst.   s(46) = (     0          1          0      )    f =( -0.2500000 )
                  (    -1          1          0      )       ( -0.2500000 )
                  (     0          1         -1      )       ( -0.2500000 )

 cart.    s(46) = (  0.0000000  0.0000000 -1.0000000 )    f =( -0.3535534 )
                  (  1.0000000  0.0000000  0.0000000 )       ( -0.3535534 )
                  (  0.0000000  1.0000000  0.0000000 )       ( -0.3535534 )


      isym = 47     inv. 120 deg rotation - cart. axis [1,-1,-1] 

 cryst.   s(47) = (     1          0         -1      )    f =( -0.2500000 )
                  (     1         -1          0      )       ( -0.2500000 )
                  (     1          0          0      )       ( -0.2500000 )

 cart.    s(47) = (  0.0000000  0.0000000  1.0000000 )    f =( -0.3535534 )
                  (  1.0000000  0.0000000  0.0000000 )       ( -0.3535534 )
                  (  0.0000000 -1.0000000  0.0000000 )       ( -0.3535534 )


      isym = 48     inv. 120 deg rotation - cart. axis [-1,-1,1] 

 cryst.   s(48) = (    -1          0          1      )    f =( -0.2500000 )
                  (     0          0          1      )       ( -0.2500000 )
                  (     0         -1          1      )       ( -0.2500000 )

 cart.    s(48) = (  0.0000000  0.0000000  1.0000000 )    f =( -0.3535534 )
                  ( -1.0000000  0.0000000  0.0000000 )       ( -0.3535534 )
                  (  0.0000000  1.0000000  0.0000000 )       ( -0.3535534 )


   Cartesian axes

     site n.     atom                  positions (alat units)
         1           Si  tau(   1) = (   0.0000000   0.0000000   0.0000000  )
         2           Si  tau(   2) = (   0.3535534   0.3535534   0.3535534  )

   Crystallographic axes

     site n.     atom                  positions (cryst. coord.)
         1           Si  tau(   1) = (  0.0000000  0.0000000  0.0000000  )
         2           Si  tau(   2) = (  0.2500000  0.2500000  0.2500000  )

     number of k points=   161  Gaussian smearing, width (Ry)=  0.0019
                       cart. coord. in units 2pi/alat
        k(    1) = (   0.3535534   0.3535534   0.3535534), wk =   0.0124224
        k(    2) = (   0.3447146   0.3447146   0.3447146), wk =   0.0124224
        k(    3) = (   0.3358757   0.3358757   0.3358757), wk =   0.0124224
        k(    4) = (   0.3270369   0.3270369   0.3270369), wk =   0.0124224
        k(    5) = (   0.3181981   0.3181981   0.3181981), wk =   0.0124224
        k(    6) = (   0.3093592   0.3093592   0.3093592), wk =   0.0124224
        k(    7) = (   0.3005204   0.3005204   0.3005204), wk =   0.0124224
        k(    8) = (   0.2916815   0.2916815   0.2916815), wk =   0.0124224
        k(    9) = (   0.2828427   0.2828427   0.2828427), wk =   0.0124224
        k(   10) = (   0.2740039   0.2740039   0.2740039), wk =   0.0124224
        k(   11) = (   0.2651650   0.2651650   0.2651650), wk =   0.0124224
        k(   12) = (   0.2563262   0.2563262   0.2563262), wk =   0.0124224
        k(   13) = (   0.2474874   0.2474874   0.2474874), wk =   0.0124224
        k(   14) = (   0.2386485   0.2386485   0.2386485), wk =   0.0124224
        k(   15) = (   0.2298097   0.2298097   0.2298097), wk =   0.0124224
        k(   16) = (   0.2209709   0.2209709   0.2209709), wk =   0.0124224
        k(   17) = (   0.2121320   0.2121320   0.2121320), wk =   0.0124224
        k(   18) = (   0.2032932   0.2032932   0.2032932), wk =   0.0124224
        k(   19) = (   0.1944544   0.1944544   0.1944544), wk =   0.0124224
        k(   20) = (   0.1856155   0.1856155   0.1856155), wk =   0.0124224
        k(   21) = (   0.1767767   0.1767767   0.1767767), wk =   0.0124224
        k(   22) = (   0.1679379   0.1679379   0.1679379), wk =   0.0124224
        k(   23) = (   0.1590990   0.1590990   0.1590990), wk =   0.0124224
        k(   24) = (   0.1502602   0.1502602   0.1502602), wk =   0.0124224
        k(   25) = (   0.1414214   0.1414214   0.1414214), wk =   0.0124224
        k(   26) = (   0.1325825   0.1325825   0.1325825), wk =   0.0124224
        k(   27) = (   0.1237437   0.1237437   0.1237437), wk =   0.0124224
        k(   28) = (   0.1149049   0.1149049   0.1149049), wk =   0.0124224
        k(   29) = (   0.1060660   0.1060660   0.1060660), wk =   0.0124224
        k(   30) = (   0.0972272   0.0972272   0.0972272), wk =   0.0124224
        k(   31) = (   0.0883883   0.0883883   0.0883883), wk =   0.0124224
        k(   32) = (   0.0795495   0.0795495   0.0795495), wk =   0.0124224
        k(   33) = (   0.0707107   0.0707107   0.0707107), wk =   0.0124224
        k(   34) = (   0.0618718   0.0618718   0.0618718), wk =   0.0124224
        k(   35) = (   0.0530330   0.0530330   0.0530330), wk =   0.0124224
        k(   36) = (   0.0441942   0.0441942   0.0441942), wk =   0.0124224
        k(   37) = (   0.0353553   0.0353553   0.0353553), wk =   0.0124224
        k(   38) = (   0.0265165   0.0265165   0.0265165), wk =   0.0124224
        k(   39) = (   0.0176777   0.0176777   0.0176777), wk =   0.0124224
        k(   40) = (   0.0088388   0.0088388   0.0088388), wk =   0.0124224
        k(   41) = (   0.0000000   0.0000000   0.0000000), wk =   0.0124224
        k(   42) = (   0.0088388   0.0088388  -0.0088388), wk =   0.0124224
        k(   43) = (   0.0176777   0.0176777  -0.0176777), wk =   0.0124224
        k(   44) = (   0.0265165   0.0265165  -0.0265165), wk =   0.0124224
        k(   45) = (   0.0353553   0.0353553  -0.0353553), wk =   0.0124224
        k(   46) = (   0.0441942   0.0441942  -0.0441942), wk =   0.0124224
        k(   47) = (   0.0530330   0.0530330  -0.0530330), wk =   0.0124224
        k(   48) = (   0.0618718   0.0618718  -0.0618718), wk =   0.0124224
        k(   49) = (   0.0707107   0.0707107  -0.0707107), wk =   0.0124224
        k(   50) = (   0.0795495   0.0795495  -0.0795495), wk =   0.0124224
        k(   51) = (   0.0883883   0.0883883  -0.0883883), wk =   0.0124224
        k(   52) = (   0.0972272   0.0972272  -0.0972272), wk =   0.0124224
        k(   53) = (   0.1060660   0.1060660  -0.1060660), wk =   0.0124224
        k(   54) = (   0.1149049   0.1149049  -0.1149049), wk =   0.0124224
        k(   55) = (   0.1237437   0.1237437  -0.1237437), wk =   0.0124224
        k(   56) = (   0.1325825   0.1325825  -0.1325825), wk =   0.0124224
        k(   57) = (   0.1414214   0.1414214  -0.1414214), wk =   0.0124224
        k(   58) = (   0.1502602   0.1502602  -0.1502602), wk =   0.0124224
        k(   59) = (   0.1590990   0.1590990  -0.1590990), wk =   0.0124224
        k(   60) = (   0.1679379   0.1679379  -0.1679379), wk =   0.0124224
        k(   61) = (   0.1767767   0.1767767  -0.1767767), wk =   0.0124224
        k(   62) = (   0.1856155   0.1856155  -0.1856155), wk =   0.0124224
        k(   63) = (   0.1944544   0.1944544  -0.1944544), wk =   0.0124224
        k(   64) = (   0.2032932   0.2032932  -0.2032932), wk =   0.0124224
        k(   65) = (   0.2121320   0.2121320  -0.2121320), wk =   0.0124224
        k(   66) = (   0.2209709   0.2209709  -0.2209709), wk =   0.0124224
        k(   67) = (   0.2298097   0.2298097  -0.2298097), wk =   0.0124224
        k(   68) = (   0.2386485   0.2386485  -0.2386485), wk =   0.0124224
        k(   69) = (   0.2474874   0.2474874  -0.2474874), wk =   0.0124224
        k(   70) = (   0.2563262   0.2563262  -0.2563262), wk =   0.0124224
        k(   71) = (   0.2651650   0.2651650  -0.2651650), wk =   0.0124224
        k(   72) = (   0.2740039   0.2740039  -0.2740039), wk =   0.0124224
        k(   73) = (   0.2828427   0.2828427  -0.2828427), wk =   0.0124224
        k(   74) = (   0.2916815   0.2916815  -0.2916815), wk =   0.0124224
        k(   75) = (   0.3005204   0.3005204  -0.3005204), wk =   0.0124224
        k(   76) = (   0.3093592   0.3093592  -0.3093592), wk =   0.0124224
        k(   77) = (   0.3181981   0.3181981  -0.3181981), wk =   0.0124224
        k(   78) = (   0.3270369   0.3270369  -0.3270369), wk =   0.0124224
        k(   79) = (   0.3358757   0.3358757  -0.3358757), wk =   0.0124224
        k(   80) = (   0.3447146   0.3447146  -0.3447146), wk =   0.0124224
        k(   81) = (   0.3535534   0.3535534  -0.3535534), wk =   0.0124224
        k(   82) = (   0.3447146   0.3623922  -0.3447146), wk =   0.0124224
        k(   83) = (   0.3358757   0.3712311  -0.3358757), wk =   0.0124224
        k(   84) = (   0.3270369   0.3800699  -0.3270369), wk =   0.0124224
        k(   85) = (   0.3181981   0.3889087  -0.3181981), wk =   0.0124224
        k(   86) = (   0.3093592   0.3977476  -0.3093592), wk =   0.0124224
        k(   87) = (   0.3005204   0.4065864  -0.3005204), wk =   0.0124224
        k(   88) = (   0.2916815   0.4154252  -0.2916815), wk =   0.0124224
        k(   89) = (   0.2828427   0.4242641  -0.2828427), wk =   0.0124224
        k(   90) = (   0.2740039   0.4331029  -0.2740039), wk =   0.0124224
        k(   91) = (   0.2651650   0.4419417  -0.2651650), wk =   0.0124224
        k(   92) = (   0.2563262   0.4507806  -0.2563262), wk =   0.0124224
        k(   93) = (   0.2474874   0.4596194  -0.2474874), wk =   0.0124224
        k(   94) = (   0.2386485   0.4684582  -0.2386485), wk =   0.0124224
        k(   95) = (   0.2298097   0.4772971  -0.2298097), wk =   0.0124224
        k(   96) = (   0.2209709   0.4861359  -0.2209709), wk =   0.0124224
        k(   97) = (   0.2121320   0.4949747  -0.2121320), wk =   0.0124224
        k(   98) = (   0.2032932   0.5038136  -0.2032932), wk =   0.0124224
        k(   99) = (   0.1944544   0.5126524  -0.1944544), wk =   0.0124224
        k(  100) = (   0.1856155   0.5214913  -0.1856155), wk =   0.0124224
        k(  101) = (   0.1767767   0.5303301  -0.1767767), wk =   0.0124224
        k(  102) = (   0.1679379   0.5391689  -0.1679379), wk =   0.0124224
        k(  103) = (   0.1590990   0.5480078  -0.1590990), wk =   0.0124224
        k(  104) = (   0.1502602   0.5568466  -0.1502602), wk =   0.0124224
        k(  105) = (   0.1414214   0.5656854  -0.1414214), wk =   0.0124224
        k(  106) = (   0.1325825   0.5745243  -0.1325825), wk =   0.0124224
        k(  107) = (   0.1237437   0.5833631  -0.1237437), wk =   0.0124224
        k(  108) = (   0.1149049   0.5922019  -0.1149049), wk =   0.0124224
        k(  109) = (   0.1060660   0.6010408  -0.1060660), wk =   0.0124224
        k(  110) = (   0.0972272   0.6098796  -0.0972272), wk =   0.0124224
        k(  111) = (   0.0883883   0.6187184  -0.0883883), wk =   0.0124224
        k(  112) = (   0.0795495   0.6275573  -0.0795495), wk =   0.0124224
        k(  113) = (   0.0707107   0.6363961  -0.0707107), wk =   0.0124224
        k(  114) = (   0.0618718   0.6452349  -0.0618718), wk =   0.0124224
        k(  115) = (   0.0530330   0.6540738  -0.0530330), wk =   0.0124224
        k(  116) = (   0.0441942   0.6629126  -0.0441942), wk =   0.0124224
        k(  117) = (   0.0353553   0.6717514  -0.0353553), wk =   0.0124224
        k(  118) = (   0.0265165   0.6805903  -0.0265165), wk =   0.0124224
        k(  119) = (   0.0176777   0.6894291  -0.0176777), wk =   0.0124224
        k(  120) = (   0.0088388   0.6982679  -0.0088388), wk =   0.0124224
        k(  121) = (   0.0000000   0.7071068   0.0000000), wk =   0.0124224
        k(  122) = (   0.0000000   0.6894291   0.0000000), wk =   0.0124224
        k(  123) = (   0.0000000   0.6717514   0.0000000), wk =   0.0124224
        k(  124) = (   0.0000000   0.6540738   0.0000000), wk =   0.0124224
        k(  125) = (   0.0000000   0.6363961   0.0000000), wk =   0.0124224
        k(  126) = (   0.0000000   0.6187184   0.0000000), wk =   0.0124224
        k(  127) = (   0.0000000   0.6010408   0.0000000), wk =   0.0124224
        k(  128) = (   0.0000000   0.5833631   0.0000000), wk =   0.0124224
        k(  129) = (   0.0000000   0.5656854   0.0000000), wk =   0.0124224
        k(  130) = (   0.0000000   0.5480078   0.0000000), wk =   0.0124224
        k(  131) = (   0.0000000   0.5303301   0.0000000), wk =   0.0124224
        k(  132) = (   0.0000000   0.5126524   0.0000000), wk =   0.0124224
        k(  133) = (   0.0000000   0.4949747   0.0000000), wk =   0.0124224
        k(  134) = (   0.0000000   0.4772971   0.0000000), wk =   0.0124224
        k(  135) = (   0.0000000   0.4596194   0.0000000), wk =   0.0124224
        k(  136) = (   0.0000000   0.4419417   0.0000000), wk =   0.0124224
        k(  137) = (   0.0000000   0.4242641   0.0000000), wk =   0.0124224
        k(  138) = (   0.0000000   0.4065864   0.0000000), wk =   0.0124224
        k(  139) = (   0.0000000   0.3889087   0.0000000), wk =   0.0124224
        k(  140) = (   0.0000000   0.3712311   0.0000000), wk =   0.0124224
        k(  141) = (   0.0000000   0.3535534   0.0000000), wk =   0.0124224
        k(  142) = (   0.0000000   0.3358757   0.0000000), wk =   0.0124224
        k(  143) = (   0.0000000   0.3181981   0.0000000), wk =   0.0124224
        k(  144) = (   0.0000000   0.3005204   0.0000000), wk =   0.0124224
        k(  145) = (   0.0000000   0.2828427   0.0000000), wk =   0.0124224
        k(  146) = (   0.0000000   0.2651650   0.0000000), wk =   0.0124224
        k(  147) = (   0.0000000   0.2474874   0.0000000), wk =   0.0124224
        k(  148) = (   0.0000000   0.2298097   0.0000000), wk =   0.0124224
        k(  149) = (   0.0000000   0.2121320   0.0000000), wk =   0.0124224
        k(  150) = (   0.0000000   0.1944544   0.0000000), wk =   0.0124224
        k(  151) = (   0.0000000   0.1767767   0.0000000), wk =   0.0124224
        k(  152) = (   0.0000000   0.1590990   0.0000000), wk =   0.0124224
        k(  153) = (   0.0000000   0.1414214   0.0000000), wk =   0.0124224
        k(  154) = (   0.0000000   0.1237437   0.0000000), wk =   0.0124224
        k(  155) = (   0.0000000   0.1060660   0.0000000), wk =   0.0124224
        k(  156) = (   0.0000000   0.0883883   0.0000000), wk =   0.0124224
        k(  157) = (   0.0000000   0.0707107   0.0000000), wk =   0.0124224
        k(  158) = (   0.0000000   0.0530330   0.0000000), wk =   0.0124224
        k(  159) = (   0.0000000   0.0353553   0.0000000), wk =   0.0124224
        k(  160) = (   0.0000000   0.0176777   0.0000000), wk =   0.0124224
        k(  161) = (   0.0000000   0.0000000   0.0000000), wk =   0.0124224

                       cryst. coord.
        k(    1) = (   0.5000000   0.5000000   0.5000000), wk =   0.0124224
        k(    2) = (   0.4875000   0.4875000   0.4875000), wk =   0.0124224
        k(    3) = (   0.4750000   0.4750000   0.4750000), wk =   0.0124224
        k(    4) = (   0.4625000   0.4625000   0.4625000), wk =   0.0124224
        k(    5) = (   0.4500000   0.4500000   0.4500000), wk =   0.0124224
        k(    6) = (   0.4375000   0.4375000   0.4375000), wk =   0.0124224
        k(    7) = (   0.4250000   0.4250000   0.4250000), wk =   0.0124224
        k(    8) = (   0.4125000   0.4125000   0.4125000), wk =   0.0124224
        k(    9) = (   0.4000000   0.4000000   0.4000000), wk =   0.0124224
        k(   10) = (   0.3875000   0.3875000   0.3875000), wk =   0.0124224
        k(   11) = (   0.3750000   0.3750000   0.3750000), wk =   0.0124224
        k(   12) = (   0.3625000   0.3625000   0.3625000), wk =   0.0124224
        k(   13) = (   0.3500000   0.3500000   0.3500000), wk =   0.0124224
        k(   14) = (   0.3375000   0.3375000   0.3375000), wk =   0.0124224
        k(   15) = (   0.3250000   0.3250000   0.3250000), wk =   0.0124224
        k(   16) = (   0.3125000   0.3125000   0.3125000), wk =   0.0124224
        k(   17) = (   0.3000000   0.3000000   0.3000000), wk =   0.0124224
        k(   18) = (   0.2875000   0.2875000   0.2875000), wk =   0.0124224
        k(   19) = (   0.2750000   0.2750000   0.2750000), wk =   0.0124224
        k(   20) = (   0.2625000   0.2625000   0.2625000), wk =   0.0124224
        k(   21) = (   0.2500000   0.2500000   0.2500000), wk =   0.0124224
        k(   22) = (   0.2375000   0.2375000   0.2375000), wk =   0.0124224
        k(   23) = (   0.2250000   0.2250000   0.2250000), wk =   0.0124224
        k(   24) = (   0.2125000   0.2125000   0.2125000), wk =   0.0124224
        k(   25) = (   0.2000000   0.2000000   0.2000000), wk =   0.0124224
        k(   26) = (   0.1875000   0.1875000   0.1875000), wk =   0.0124224
        k(   27) = (   0.1750000   0.1750000   0.1750000), wk =   0.0124224
        k(   28) = (   0.1625000   0.1625000   0.1625000), wk =   0.0124224
        k(   29) = (   0.1500000   0.1500000   0.1500000), wk =   0.0124224
        k(   30) = (   0.1375000   0.1375000   0.1375000), wk =   0.0124224
        k(   31) = (   0.1250000   0.1250000   0.1250000), wk =   0.0124224
        k(   32) = (   0.1125000   0.1125000   0.1125000), wk =   0.0124224
        k(   33) = (   0.1000000   0.1000000   0.1000000), wk =   0.0124224
        k(   34) = (   0.0875000   0.0875000   0.0875000), wk =   0.0124224
        k(   35) = (   0.0750000   0.0750000   0.0750000), wk =   0.0124224
        k(   36) = (   0.0625000   0.0625000   0.0625000), wk =   0.0124224
        k(   37) = (   0.0500000   0.0500000   0.0500000), wk =   0.0124224
        k(   38) = (   0.0375000   0.0375000   0.0375000), wk =   0.0124224
        k(   39) = (   0.0250000   0.0250000   0.0250000), wk =   0.0124224
        k(   40) = (   0.0125000   0.0125000   0.0125000), wk =   0.0124224
        k(   41) = (   0.0000000   0.0000000   0.0000000), wk =   0.0124224
        k(   42) = (   0.0125000   0.0000000   0.0000000), wk =   0.0124224
        k(   43) = (   0.0250000   0.0000000   0.0000000), wk =   0.0124224
        k(   44) = (   0.0375000   0.0000000   0.0000000), wk =   0.0124224
        k(   45) = (   0.0500000   0.0000000   0.0000000), wk =   0.0124224
        k(   46) = (   0.0625000   0.0000000   0.0000000), wk =   0.0124224
        k(   47) = (   0.0750000   0.0000000   0.0000000), wk =   0.0124224
        k(   48) = (   0.0875000   0.0000000   0.0000000), wk =   0.0124224
        k(   49) = (   0.1000000   0.0000000   0.0000000), wk =   0.0124224
        k(   50) = (   0.1125000   0.0000000   0.0000000), wk =   0.0124224
        k(   51) = (   0.1250000   0.0000000   0.0000000), wk =   0.0124224
        k(   52) = (   0.1375000   0.0000000   0.0000000), wk =   0.0124224
        k(   53) = (   0.1500000   0.0000000   0.0000000), wk =   0.0124224
        k(   54) = (   0.1625000   0.0000000   0.0000000), wk =   0.0124224
        k(   55) = (   0.1750000   0.0000000   0.0000000), wk =   0.0124224
        k(   56) = (   0.1875000   0.0000000   0.0000000), wk =   0.0124224
        k(   57) = (   0.2000000   0.0000000   0.0000000), wk =   0.0124224
        k(   58) = (   0.2125000   0.0000000   0.0000000), wk =   0.0124224
        k(   59) = (   0.2250000   0.0000000   0.0000000), wk =   0.0124224
        k(   60) = (   0.2375000   0.0000000   0.0000000), wk =   0.0124224
        k(   61) = (   0.2500000   0.0000000   0.0000000), wk =   0.0124224
        k(   62) = (   0.2625000   0.0000000   0.0000000), wk =   0.0124224
        k(   63) = (   0.2750000   0.0000000   0.0000000), wk =   0.0124224
        k(   64) = (   0.2875000   0.0000000   0.0000000), wk =   0.0124224
        k(   65) = (   0.3000000   0.0000000   0.0000000), wk =   0.0124224
        k(   66) = (   0.3125000   0.0000000   0.0000000), wk =   0.0124224
        k(   67) = (   0.3250000   0.0000000   0.0000000), wk =   0.0124224
        k(   68) = (   0.3375000   0.0000000   0.0000000), wk =   0.0124224
        k(   69) = (   0.3500000   0.0000000   0.0000000), wk =   0.0124224
        k(   70) = (   0.3625000   0.0000000   0.0000000), wk =   0.0124224
        k(   71) = (   0.3750000   0.0000000   0.0000000), wk =   0.0124224
        k(   72) = (   0.3875000   0.0000000   0.0000000), wk =   0.0124224
        k(   73) = (   0.4000000   0.0000000   0.0000000), wk =   0.0124224
        k(   74) = (   0.4125000   0.0000000   0.0000000), wk =   0.0124224
        k(   75) = (   0.4250000   0.0000000   0.0000000), wk =   0.0124224
        k(   76) = (   0.4375000   0.0000000   0.0000000), wk =   0.0124224
        k(   77) = (   0.4500000   0.0000000   0.0000000), wk =   0.0124224
        k(   78) = (   0.4625000   0.0000000   0.0000000), wk =   0.0124224
        k(   79) = (   0.4750000   0.0000000   0.0000000), wk =   0.0124224
        k(   80) = (   0.4875000   0.0000000   0.0000000), wk =   0.0124224
        k(   81) = (   0.5000000   0.0000000   0.0000000), wk =   0.0124224
        k(   82) = (   0.5000000   0.0125000   0.0000000), wk =   0.0124224
        k(   83) = (   0.5000000   0.0250000   0.0000000), wk =   0.0124224
        k(   84) = (   0.5000000   0.0375000   0.0000000), wk =   0.0124224
        k(   85) = (   0.5000000   0.0500000   0.0000000), wk =   0.0124224
        k(   86) = (   0.5000000   0.0625000   0.0000000), wk =   0.0124224
        k(   87) = (   0.5000000   0.0750000   0.0000000), wk =   0.0124224
        k(   88) = (   0.5000000   0.0875000   0.0000000), wk =   0.0124224
        k(   89) = (   0.5000000   0.1000000   0.0000000), wk =   0.0124224
        k(   90) = (   0.5000000   0.1125000   0.0000000), wk =   0.0124224
        k(   91) = (   0.5000000   0.1250000   0.0000000), wk =   0.0124224
        k(   92) = (   0.5000000   0.1375000   0.0000000), wk =   0.0124224
        k(   93) = (   0.5000000   0.1500000   0.0000000), wk =   0.0124224
        k(   94) = (   0.5000000   0.1625000   0.0000000), wk =   0.0124224
        k(   95) = (   0.5000000   0.1750000   0.0000000), wk =   0.0124224
        k(   96) = (   0.5000000   0.1875000   0.0000000), wk =   0.0124224
        k(   97) = (   0.5000000   0.2000000   0.0000000), wk =   0.0124224
        k(   98) = (   0.5000000   0.2125000   0.0000000), wk =   0.0124224
        k(   99) = (   0.5000000   0.2250000   0.0000000), wk =   0.0124224
        k(  100) = (   0.5000000   0.2375000   0.0000000), wk =   0.0124224
        k(  101) = (   0.5000000   0.2500000   0.0000000), wk =   0.0124224
        k(  102) = (   0.5000000   0.2625000   0.0000000), wk =   0.0124224
        k(  103) = (   0.5000000   0.2750000   0.0000000), wk =   0.0124224
        k(  104) = (   0.5000000   0.2875000   0.0000000), wk =   0.0124224
        k(  105) = (   0.5000000   0.3000000   0.0000000), wk =   0.0124224
        k(  106) = (   0.5000000   0.3125000   0.0000000), wk =   0.0124224
        k(  107) = (   0.5000000   0.3250000   0.0000000), wk =   0.0124224
        k(  108) = (   0.5000000   0.3375000   0.0000000), wk =   0.0124224
        k(  109) = (   0.5000000   0.3500000   0.0000000), wk =   0.0124224
        k(  110) = (   0.5000000   0.3625000   0.0000000), wk =   0.0124224
        k(  111) = (   0.5000000   0.3750000   0.0000000), wk =   0.0124224
        k(  112) = (   0.5000000   0.3875000   0.0000000), wk =   0.0124224
        k(  113) = (   0.5000000   0.4000000   0.0000000), wk =   0.0124224
        k(  114) = (   0.5000000   0.4125000   0.0000000), wk =   0.0124224
        k(  115) = (   0.5000000   0.4250000   0.0000000), wk =   0.0124224
        k(  116) = (   0.5000000   0.4375000   0.0000000), wk =   0.0124224
        k(  117) = (   0.5000000   0.4500000   0.0000000), wk =   0.0124224
        k(  118) = (   0.5000000   0.4625000   0.0000000), wk =   0.0124224
        k(  119) = (   0.5000000   0.4750000   0.0000000), wk =   0.0124224
        k(  120) = (   0.5000000   0.4875000   0.0000000), wk =   0.0124224
        k(  121) = (   0.5000000   0.5000000   0.0000000), wk =   0.0124224
        k(  122) = (   0.4875000   0.4875000   0.0000000), wk =   0.0124224
        k(  123) = (   0.4750000   0.4750000   0.0000000), wk =   0.0124224
        k(  124) = (   0.4625000   0.4625000   0.0000000), wk =   0.0124224
        k(  125) = (   0.4500000   0.4500000   0.0000000), wk =   0.0124224
        k(  126) = (   0.4375000   0.4375000   0.0000000), wk =   0.0124224
        k(  127) = (   0.4250000   0.4250000   0.0000000), wk =   0.0124224
        k(  128) = (   0.4125000   0.4125000   0.0000000), wk =   0.0124224
        k(  129) = (   0.4000000   0.4000000   0.0000000), wk =   0.0124224
        k(  130) = (   0.3875000   0.3875000   0.0000000), wk =   0.0124224
        k(  131) = (   0.3750000   0.3750000   0.0000000), wk =   0.0124224
        k(  132) = (   0.3625000   0.3625000   0.0000000), wk =   0.0124224
        k(  133) = (   0.3500000   0.3500000   0.0000000), wk =   0.0124224
        k(  134) = (   0.3375000   0.3375000   0.0000000), wk =   0.0124224
        k(  135) = (   0.3250000   0.3250000   0.0000000), wk =   0.0124224
        k(  136) = (   0.3125000   0.3125000   0.0000000), wk =   0.0124224
        k(  137) = (   0.3000000   0.3000000   0.0000000), wk =   0.0124224
        k(  138) = (   0.2875000   0.2875000   0.0000000), wk =   0.0124224
        k(  139) = (   0.2750000   0.2750000   0.0000000), wk =   0.0124224
        k(  140) = (   0.2625000   0.2625000   0.0000000), wk =   0.0124224
        k(  141) = (   0.2500000   0.2500000   0.0000000), wk =   0.0124224
        k(  142) = (   0.2375000   0.2375000   0.0000000), wk =   0.0124224
        k(  143) = (   0.2250000   0.2250000   0.0000000), wk =   0.0124224
        k(  144) = (   0.2125000   0.2125000   0.0000000), wk =   0.0124224
        k(  145) = (   0.2000000   0.2000000   0.0000000), wk =   0.0124224
        k(  146) = (   0.1875000   0.1875000   0.0000000), wk =   0.0124224
        k(  147) = (   0.1750000   0.1750000   0.0000000), wk =   0.0124224
        k(  148) = (   0.1625000   0.1625000   0.0000000), wk =   0.0124224
        k(  149) = (   0.1500000   0.1500000   0.0000000), wk =   0.0124224
        k(  150) = (   0.1375000   0.1375000   0.0000000), wk =   0.0124224
        k(  151) = (   0.1250000   0.1250000   0.0000000), wk =   0.0124224
        k(  152) = (   0.1125000   0.1125000   0.0000000), wk =   0.0124224
        k(  153) = (   0.1000000   0.1000000   0.0000000), wk =   0.0124224
        k(  154) = (   0.0875000   0.0875000   0.0000000), wk =   0.0124224
        k(  155) = (   0.0750000   0.0750000   0.0000000), wk =   0.0124224
        k(  156) = (   0.0625000   0.0625000   0.0000000), wk =   0.0124224
        k(  157) = (   0.0500000   0.0500000   0.0000000), wk =   0.0124224
        k(  158) = (   0.0375000   0.0375000   0.0000000), wk =   0.0124224
        k(  159) = (   0.0250000   0.0250000   0.0000000), wk =   0.0124224
        k(  160) = (   0.0125000   0.0125000   0.0000000), wk =   0.0124224
        k(  161) = (   0.0000000   0.0000000   0.0000000), wk =   0.0124224

     Dense  grid:    75745 G-vectors     FFT dimensions: (  60,  60,  60)

     Smooth grid:    26813 G-vectors     FFT dimensions: (  48,  48,  48)

     Dynamical RAM for                 wfc:       0.13 MB

     Dynamical RAM for     wfc (w. buffer):       0.13 MB

     Dynamical RAM for           str. fact:       0.07 MB

     Dynamical RAM for           local pot:       0.00 MB

     Dynamical RAM for          nlocal pot:       0.05 MB

     Dynamical RAM for                qrad:       0.58 MB

     Dynamical RAM for          rho,v,vnew:       0.55 MB

     Dynamical RAM for           G-vectors:       0.28 MB

     Dynamical RAM for          h,s,v(r/c):       0.29 MB

     Dynamical RAM for          <psi|beta>:       0.01 MB

     Dynamical RAM for                 psi:       0.26 MB

     Dynamical RAM for                hpsi:       0.26 MB

     Dynamical RAM for      wfcinit/wfcrot:       0.29 MB

     Estimated static dynamical RAM per process >       2.35 MB

     Estimated max dynamical RAM per process >       3.17 MB

     Estimated total dynamical RAM >      50.68 MB

     Atomic positions and unit cell read from directory:
     ./wavefunc/Si.save/
 

     The potential is recalculated from file :
     ./wavefunc/Si.save/charge-density

     Starting wfcs are random

     Band Structure Calculation
     Davidson diagonalization with overlap

     Computing kpt #:     1  of   161
     total cpu time spent up to now is        0.5 secs

     Computing kpt #:     2  of   161
     total cpu time spent up to now is        0.6 secs

     Computing kpt #:     3  of   161
     total cpu time spent up to now is        0.7 secs

     Computing kpt #:     4  of   161
     total cpu time spent up to now is        0.8 secs

     Computing kpt #:     5  of   161
     total cpu time spent up to now is        0.9 secs

     Computing kpt #:     6  of   161
     total cpu time spent up to now is        1.0 secs

     Computing kpt #:     7  of   161
     total cpu time spent up to now is        1.2 secs

     Computing kpt #:     8  of   161
     total cpu time spent up to now is        1.3 secs

     Computing kpt #:     9  of   161
     total cpu time spent up to now is        1.4 secs

     Computing kpt #:    10  of   161
     total cpu time spent up to now is        1.5 secs

     Computing kpt #:    11  of   161
     total cpu time spent up to now is        1.6 secs

     Computing kpt #:    12  of   161
     total cpu time spent up to now is        1.8 secs

     Computing kpt #:    13  of   161
     total cpu time spent up to now is        1.9 secs

     Computing kpt #:    14  of   161
     total cpu time spent up to now is        2.0 secs

     Computing kpt #:    15  of   161
     total cpu time spent up to now is        2.1 secs

     Computing kpt #:    16  of   161
     total cpu time spent up to now is        2.3 secs

     Computing kpt #:    17  of   161
     total cpu time spent up to now is        2.4 secs

     Computing kpt #:    18  of   161
     total cpu time spent up to now is        2.5 secs

     Computing kpt #:    19  of   161
     total cpu time spent up to now is        2.6 secs

     Computing kpt #:    20  of   161
     total cpu time spent up to now is        2.7 secs

     Computing kpt #:    21  of   161
     total cpu time spent up to now is        2.9 secs

     Computing kpt #:    22  of   161
     total cpu time spent up to now is        3.0 secs

     Computing kpt #:    23  of   161
     total cpu time spent up to now is        3.1 secs

     Computing kpt #:    24  of   161
     total cpu time spent up to now is        3.2 secs

     Computing kpt #:    25  of   161
     total cpu time spent up to now is        3.4 secs

     Computing kpt #:    26  of   161
     total cpu time spent up to now is        3.5 secs

     Computing kpt #:    27  of   161
     total cpu time spent up to now is        3.6 secs

     Computing kpt #:    28  of   161
     total cpu time spent up to now is        3.7 secs

     Computing kpt #:    29  of   161
     total cpu time spent up to now is        3.9 secs

     Computing kpt #:    30  of   161
     total cpu time spent up to now is        4.0 secs

     Computing kpt #:    31  of   161
     total cpu time spent up to now is        4.1 secs

     Computing kpt #:    32  of   161
     total cpu time spent up to now is        4.3 secs

     Computing kpt #:    33  of   161
     total cpu time spent up to now is        4.4 secs

     Computing kpt #:    34  of   161
     total cpu time spent up to now is        4.5 secs

     Computing kpt #:    35  of   161
     total cpu time spent up to now is        4.6 secs

     Computing kpt #:    36  of   161
     total cpu time spent up to now is        4.8 secs

     Computing kpt #:    37  of   161
     total cpu time spent up to now is        4.9 secs

     Computing kpt #:    38  of   161
     total cpu time spent up to now is        5.0 secs

     Computing kpt #:    39  of   161
     total cpu time spent up to now is        5.1 secs

     Computing kpt #:    40  of   161
     total cpu time spent up to now is        5.3 secs

     Computing kpt #:    41  of   161
     total cpu time spent up to now is        5.4 secs

     Computing kpt #:    42  of   161
     total cpu time spent up to now is        5.5 secs

     Computing kpt #:    43  of   161
     total cpu time spent up to now is        5.6 secs

     Computing kpt #:    44  of   161
     total cpu time spent up to now is        5.8 secs

     Computing kpt #:    45  of   161
     total cpu time spent up to now is        5.9 secs

     Computing kpt #:    46  of   161
     total cpu time spent up to now is        6.0 secs

     Computing kpt #:    47  of   161
     total cpu time spent up to now is        6.1 secs

     Computing kpt #:    48  of   161
     total cpu time spent up to now is        6.3 secs

     Computing kpt #:    49  of   161
     total cpu time spent up to now is        6.4 secs

     Computing kpt #:    50  of   161
     total cpu time spent up to now is        6.5 secs

     Computing kpt #:    51  of   161
     total cpu time spent up to now is        6.6 secs

     Computing kpt #:    52  of   161
     total cpu time spent up to now is        6.7 secs

     Computing kpt #:    53  of   161
     total cpu time spent up to now is        6.9 secs

     Computing kpt #:    54  of   161
     total cpu time spent up to now is        7.0 secs

     Computing kpt #:    55  of   161
     total cpu time spent up to now is        7.1 secs

     Computing kpt #:    56  of   161
     total cpu time spent up to now is        7.2 secs

     Computing kpt #:    57  of   161
     total cpu time spent up to now is        7.4 secs

     Computing kpt #:    58  of   161
     total cpu time spent up to now is        7.5 secs

     Computing kpt #:    59  of   161
     total cpu time spent up to now is        7.6 secs

     Computing kpt #:    60  of   161
     total cpu time spent up to now is        7.7 secs

     Computing kpt #:    61  of   161
     total cpu time spent up to now is        7.9 secs

     Computing kpt #:    62  of   161
     total cpu time spent up to now is        8.0 secs

     Computing kpt #:    63  of   161
     total cpu time spent up to now is        8.1 secs

     Computing kpt #:    64  of   161
     total cpu time spent up to now is        8.2 secs

     Computing kpt #:    65  of   161
     total cpu time spent up to now is        8.4 secs

     Computing kpt #:    66  of   161
     total cpu time spent up to now is        8.5 secs

     Computing kpt #:    67  of   161
     total cpu time spent up to now is        8.6 secs

     Computing kpt #:    68  of   161
     total cpu time spent up to now is        8.7 secs

     Computing kpt #:    69  of   161
     total cpu time spent up to now is        8.8 secs

     Computing kpt #:    70  of   161
     total cpu time spent up to now is        9.0 secs

     Computing kpt #:    71  of   161
     total cpu time spent up to now is        9.1 secs

     Computing kpt #:    72  of   161
     total cpu time spent up to now is        9.2 secs

     Computing kpt #:    73  of   161
     total cpu time spent up to now is        9.3 secs

     Computing kpt #:    74  of   161
     total cpu time spent up to now is        9.4 secs

     Computing kpt #:    75  of   161
     total cpu time spent up to now is        9.6 secs

     Computing kpt #:    76  of   161
     total cpu time spent up to now is        9.7 secs

     Computing kpt #:    77  of   161
     total cpu time spent up to now is        9.8 secs

     Computing kpt #:    78  of   161
     total cpu time spent up to now is        9.9 secs

     Computing kpt #:    79  of   161
     total cpu time spent up to now is       10.0 secs

     Computing kpt #:    80  of   161
     total cpu time spent up to now is       10.1 secs

     Computing kpt #:    81  of   161
     total cpu time spent up to now is       10.2 secs

     Computing kpt #:    82  of   161
     total cpu time spent up to now is       10.3 secs

     Computing kpt #:    83  of   161
     total cpu time spent up to now is       10.5 secs

     Computing kpt #:    84  of   161
     total cpu time spent up to now is       10.6 secs

     Computing kpt #:    85  of   161
     total cpu time spent up to now is       10.7 secs

     Computing kpt #:    86  of   161
     total cpu time spent up to now is       10.8 secs

     Computing kpt #:    87  of   161
     total cpu time spent up to now is       10.9 secs

     Computing kpt #:    88  of   161
     total cpu time spent up to now is       11.0 secs

     Computing kpt #:    89  of   161
     total cpu time spent up to now is       11.2 secs

     Computing kpt #:    90  of   161
     total cpu time spent up to now is       11.3 secs

     Computing kpt #:    91  of   161
     total cpu time spent up to now is       11.4 secs

     Computing kpt #:    92  of   161
     total cpu time spent up to now is       11.5 secs

     Computing kpt #:    93  of   161
     total cpu time spent up to now is       11.7 secs

     Computing kpt #:    94  of   161
     total cpu time spent up to now is       11.8 secs

     Computing kpt #:    95  of   161
     total cpu time spent up to now is       11.9 secs

     Computing kpt #:    96  of   161
     total cpu time spent up to now is       12.1 secs

     Computing kpt #:    97  of   161
     total cpu time spent up to now is       12.2 secs

     Computing kpt #:    98  of   161
     total cpu time spent up to now is       12.3 secs

     Computing kpt #:    99  of   161
     total cpu time spent up to now is       12.5 secs

     Computing kpt #:   100  of   161
     total cpu time spent up to now is       12.6 secs

     Computing kpt #:   101  of   161
     total cpu time spent up to now is       12.8 secs

     Computing kpt #:   102  of   161
     total cpu time spent up to now is       12.9 secs

     Computing kpt #:   103  of   161
     total cpu time spent up to now is       13.0 secs

     Computing kpt #:   104  of   161
     total cpu time spent up to now is       13.1 secs

     Computing kpt #:   105  of   161
     total cpu time spent up to now is       13.3 secs

     Computing kpt #:   106  of   161
     total cpu time spent up to now is       13.4 secs

     Computing kpt #:   107  of   161
     total cpu time spent up to now is       13.5 secs

     Computing kpt #:   108  of   161
     total cpu time spent up to now is       13.6 secs

     Computing kpt #:   109  of   161
     total cpu time spent up to now is       13.7 secs

     Computing kpt #:   110  of   161
     total cpu time spent up to now is       13.9 secs

     Computing kpt #:   111  of   161
     total cpu time spent up to now is       14.0 secs

     Computing kpt #:   112  of   161
     total cpu time spent up to now is       14.1 secs

     Computing kpt #:   113  of   161
     total cpu time spent up to now is       14.2 secs

     Computing kpt #:   114  of   161
     total cpu time spent up to now is       14.3 secs

     Computing kpt #:   115  of   161
     total cpu time spent up to now is       14.4 secs

     Computing kpt #:   116  of   161
     total cpu time spent up to now is       14.5 secs

     Computing kpt #:   117  of   161
     total cpu time spent up to now is       14.6 secs

     Computing kpt #:   118  of   161
     total cpu time spent up to now is       14.8 secs

     Computing kpt #:   119  of   161
     total cpu time spent up to now is       14.9 secs

     Computing kpt #:   120  of   161
     total cpu time spent up to now is       15.0 secs

     Computing kpt #:   121  of   161
     total cpu time spent up to now is       15.1 secs

     Computing kpt #:   122  of   161
     total cpu time spent up to now is       15.2 secs

     Computing kpt #:   123  of   161
     total cpu time spent up to now is       15.3 secs

     Computing kpt #:   124  of   161
     total cpu time spent up to now is       15.4 secs

     Computing kpt #:   125  of   161
     total cpu time spent up to now is       15.5 secs

     Computing kpt #:   126  of   161
     total cpu time spent up to now is       15.6 secs

     Computing kpt #:   127  of   161
     total cpu time spent up to now is       15.7 secs

     Computing kpt #:   128  of   161
     total cpu time spent up to now is       15.8 secs

     Computing kpt #:   129  of   161
     total cpu time spent up to now is       16.0 secs

     Computing kpt #:   130  of   161
     total cpu time spent up to now is       16.1 secs

     Computing kpt #:   131  of   161
     total cpu time spent up to now is       16.2 secs

     Computing kpt #:   132  of   161
     total cpu time spent up to now is       16.3 secs

     Computing kpt #:   133  of   161
     total cpu time spent up to now is       16.4 secs

     Computing kpt #:   134  of   161
     total cpu time spent up to now is       16.6 secs

     Computing kpt #:   135  of   161
     total cpu time spent up to now is       16.7 secs

     Computing kpt #:   136  of   161
     total cpu time spent up to now is       16.8 secs

     Computing kpt #:   137  of   161
     total cpu time spent up to now is       16.9 secs

     Computing kpt #:   138  of   161
     total cpu time spent up to now is       17.0 secs

     Computing kpt #:   139  of   161
     total cpu time spent up to now is       17.2 secs

     Computing kpt #:   140  of   161
     total cpu time spent up to now is       17.3 secs

     Computing kpt #:   141  of   161
     total cpu time spent up to now is       17.4 secs

     Computing kpt #:   142  of   161
     total cpu time spent up to now is       17.5 secs

     Computing kpt #:   143  of   161
     total cpu time spent up to now is       17.6 secs

     Computing kpt #:   144  of   161
     total cpu time spent up to now is       17.8 secs

     Computing kpt #:   145  of   161
     total cpu time spent up to now is       17.9 secs

     Computing kpt #:   146  of   161
     total cpu time spent up to now is       18.0 secs

     Computing kpt #:   147  of   161
     total cpu time spent up to now is       18.1 secs

     Computing kpt #:   148  of   161
     total cpu time spent up to now is       18.2 secs

     Computing kpt #:   149  of   161
     total cpu time spent up to now is       18.3 secs

     Computing kpt #:   150  of   161
     total cpu time spent up to now is       18.4 secs

     Computing kpt #:   151  of   161
     total cpu time spent up to now is       18.6 secs

     Computing kpt #:   152  of   161
     total cpu time spent up to now is       18.7 secs

     Computing kpt #:   153  of   161
     total cpu time spent up to now is       18.8 secs

     Computing kpt #:   154  of   161
     total cpu time spent up to now is       18.9 secs

     Computing kpt #:   155  of   161
     total cpu time spent up to now is       19.0 secs

     Computing kpt #:   156  of   161
     total cpu time spent up to now is       19.2 secs

     Computing kpt #:   157  of   161
     total cpu time spent up to now is       19.3 secs

     Computing kpt #:   158  of   161
     total cpu time spent up to now is       19.4 secs

     Computing kpt #:   159  of   161
     total cpu time spent up to now is       19.6 secs

     Computing kpt #:   160  of   161
     total cpu time spent up to now is       19.7 secs

     Computing kpt #:   161  of   161
     total cpu time spent up to now is       19.8 secs

     ethr =  1.25E-09,  avg # of iterations = 31.3

     total cpu time spent up to now is       19.8 secs

     End of band structure calculation

          k = 0.3536 0.3536 0.3536 (  3354 PWs)   bands (ev):

    -3.5608  -0.8898   4.7879   4.7879   7.3816   9.2906   9.2906  13.6357
    16.3656  16.3656  17.0566  17.1106  17.1106  18.6023  24.9078  25.5807
    27.2366  27.2366  27.3091  27.3091  31.1915  31.9067  31.9067  32.7099
    32.7099  33.9209  36.5635  37.7101  37.7101  38.2259  38.2259  39.0551
    41.9200  42.1599  45.9934  45.9934  47.8273  47.8273  48.2378  48.7895

          k = 0.3447 0.3447 0.3447 (  3347 PWs)   bands (ev):

    -3.5694  -0.8774   4.7890   4.7890   7.3829   9.2918   9.2918  13.6376
    16.2885  16.2885  17.0197  17.1924  17.1924  18.6377  24.7391  25.7555
    26.9734  26.9734  27.5623  27.5623  31.1443  31.9125  31.9125  32.7160
    32.7160  33.9585  36.5591  37.7103  37.7103  38.2340  38.2340  39.0612
    41.9290  42.1692  45.9938  45.9938  47.8229  47.8229  48.2380  48.7921

          k = 0.3359 0.3359 0.3359 (  3347 PWs)   bands (ev):

    -3.5947  -0.8408   4.7923   4.7923   7.3868   9.2955   9.2955  13.6432
    16.1145  16.1145  16.9183  17.3801  17.3801  18.7346  24.4250  26.0883
    26.6701  26.6701  27.8355  27.8355  31.0110  31.9295  31.9295  32.7352
    32.7352  34.0628  36.5459  37.7111  37.7111  38.2579  38.2579  39.0802
    41.9560  42.1967  45.9949  45.9949  47.8091  47.8091  48.2385  48.7998

          k = 0.3270 0.3270 0.3270 (  3353 PWs)   bands (ev):

    -3.6353  -0.7812   4.7978   4.7978   7.3933   9.3015   9.3015  13.6523
    15.9066  15.9066  16.7713  17.6108  17.6108  18.8731  24.0862  26.3611
    26.3611  26.4591  28.0932  28.0932  30.8104  31.9561  31.9561  32.7700
    32.7700  34.2132  36.5242  37.7136  37.7136  38.2963  38.2963  39.1144
    42.0006  42.2418  45.9967  45.9967  47.7842  47.7842  48.2395  48.8124

          k = 0.3182 0.3182 0.3182 (  3359 PWs)   bands (ev):

    -3.6892  -0.7008   4.8056   4.8056   7.4024   9.3098   9.3098  13.6648
    15.6886  15.6886  16.5957  17.8607  17.8607  19.0346  23.7485  26.0492
    26.0492  26.8441  28.3315  28.3315  30.5624  31.9894  31.9894  32.8249
    32.8249  34.3873  36.4946  37.7192  37.7192  38.3476  38.3476  39.1674
    42.0624  42.3034  45.9989  45.9989  47.7448  47.7448  48.2414  48.8296

          k = 0.3094 0.3094 0.3094 (  3359 PWs)   bands (ev):

    -3.7543  -0.6016   4.8155   4.8155   7.4141   9.3201   9.3201  13.6803
    15.4691  15.4691  16.4034  18.1209  18.1209  19.2044  23.4215  25.7362
    25.7362  27.2363  28.5473  28.5473  30.2829  32.0254  32.0254  32.9055
    32.9055  34.5662  36.4575  37.7292  37.7292  38.4101  38.4101  39.2437
    42.1407  42.3800  46.0012  46.0012  47.6863  47.6863  48.2445  48.8511

          k = 0.3005 0.3005 0.3005 (  3359 PWs)   bands (ev):

    -3.8283  -0.4860   4.8275   4.8275   7.4283   9.3323   9.3323  13.6980
    15.2520  15.2520  16.2018  18.3873  18.3873  19.3710  23.1125  25.4241
    25.4241  27.6326  28.7382  28.7382  29.9834  32.0594  32.0594  33.0176
    33.0176  34.7354  36.4138  37.7446  37.7446  38.4823  38.4823  39.3482
    42.2349  42.4699  46.0031  46.0031  47.6025  47.6025  48.2492  48.8762

          k = 0.2917 0.2917 0.2917 (  3362 PWs)   bands (ev):

    -3.9091  -0.3561   4.8418   4.8418   7.4451   9.3462   9.3462  13.7173
    15.0392  15.0392  15.9961  18.6576  18.6576  19.5225  22.8301  25.1144
    25.1144  28.0302  28.9028  28.9028  29.6728  32.0876  32.0876  33.1655
    33.1655  34.8842  36.3641  37.7661  37.7661  38.5628  38.5628  39.4851
    42.3442  42.5716  46.0035  46.0035  47.4863  47.4863  48.2560  48.9048

          k = 0.2828 0.2828 0.2828 (  3362 PWs)   bands (ev):

    -3.9949  -0.2138   4.8583   4.8583   7.4644   9.3612   9.3612  13.7366
    14.8321  14.8321  15.7902  18.9299  18.9299  19.6456  22.5859  24.8091
    24.8091  28.4226  29.0409  29.0409  29.3617  32.1079  32.1079  33.3509
    33.3509  35.0057  36.3094  37.7944  37.7944  38.6502  38.6502  39.6579
    42.4677  42.6831  46.0005  46.0005  47.3325  47.3325  48.2653  48.9362

          k = 0.2740 0.2740 0.2740 (  3365 PWs)   bands (ev):

    -4.0840  -0.0606   4.8769   4.8769   7.4862   9.3772   9.3772  13.7542
    14.6316  14.6316  15.5877  19.2023  19.2023  19.7243  22.3946  24.5100
    24.5100  28.7535  29.1094  29.1536  29.1536  32.1199  32.1199  33.5723
    33.5723  35.0959  36.2504  37.8296  37.8296  38.7433  38.7433  39.8678
    42.6047  42.8027  45.9901  45.9901  47.1415  47.1415  48.2776  48.9700

          k = 0.2652 0.2652 0.2652 (  3353 PWs)   bands (ev):

    -4.1753   0.1021   4.8977   4.8977   7.5105   9.3935   9.3935  13.7669
    14.4386  14.4386  15.3924  19.4724  19.4724  19.7421  22.2718  24.2198
    24.2198  28.6326  29.2428  29.2428  29.3084  32.1243  32.1243  33.8267
    33.8267  35.1540  36.1878  37.8720  37.8720  38.8409  38.8409  40.1144
    42.7543  42.9287  45.9637  45.9637  46.9242  46.9242  48.2933  49.0059

          k = 0.2563 0.2563 0.2563 (  3350 PWs)   bands (ev):

    -4.2677   0.2732   4.9206   4.9206   7.5373   9.4097   9.4097  13.7703
    14.2538  14.2538  15.2097  19.6884  19.7371  19.7371  22.2275  23.9419
    23.9419  28.3247  29.3111  29.3111  29.6952  32.1223  32.1223  34.1098
    34.1098  35.1813  36.1226  37.9215  37.9215  38.9416  38.9416  40.3954
    42.9158  43.0594  45.9024  45.9024  46.7065  46.7065  48.3129  49.0435

          k = 0.2475 0.2475 0.2475 (  3362 PWs)   bands (ev):

    -4.3602   0.4518   4.9457   4.9457   7.5664   9.4252   9.4252  13.7576
    14.0780  14.0780  15.0464  19.5651  19.9916  19.9916  22.2593  23.6810
    23.6810  28.0039  29.3615  29.3615  30.0970  32.1149  32.1149  34.4172
    34.4172  35.1810  36.0552  37.9781  37.9781  39.0439  39.0439  40.7070
    43.0885  43.1930  45.7739  45.7739  46.5307  46.5307  48.3368  49.0824

          k = 0.2386 0.2386 0.2386 (  3356 PWs)   bands (ev):

    -4.4523   0.6371   4.9728   4.9728   7.5979   9.4392   9.4392  13.7204
    13.9122  13.9122  14.9112  19.3851  20.2288  20.2288  22.3537  23.4447
    23.4447  27.6832  29.3967  29.3967  30.5012  32.1030  32.1030  34.7448
    34.7448  35.1568  35.9865  38.0416  38.0416  39.1461  39.1461  41.0452
    43.2717  43.3279  45.5575  45.5575  46.4276  46.4276  48.3656  49.0938

          k = 0.2298 0.2298 0.2298 (  3368 PWs)   bands (ev):

    -4.5433   0.8285   5.0020   5.0020   7.6317   9.4511   9.4511  13.6501
    13.7570  13.7570  14.8124  19.1653  20.4377  20.4377  22.4935  23.2439
    23.2439  27.3665  29.4194  29.4194  30.9044  32.0875  32.0875  35.0884
    35.0884  35.1131  35.9170  38.1120  38.1120  39.2461  39.2461  41.4055
    43.4624  43.4648  45.2753  45.2753  46.3844  46.3844  48.3997  49.0738

          k = 0.2210 0.2210 0.2210 (  3368 PWs)   bands (ev):

    -4.6327   1.0255   5.0332   5.0332   7.6676   9.4599   9.4599  13.5429
    13.6133  13.6133  14.7538  18.9201  20.6022  20.6022  22.6632  23.0951
    23.0951  27.0565  29.4317  29.4317  31.3043  32.0689  32.0689  35.0547
    35.4443  35.4443  35.8473  38.1890  38.1890  39.3414  39.3414  41.7835
    43.5950  43.6674  44.9614  44.9614  46.3754  46.3754  48.4398  49.0661

          k = 0.2121 0.2121 0.2121 (  3368 PWs)   bands (ev):

    -4.7201   1.2274   5.0665   5.0665   7.7058   9.4649   9.4649  13.4019
    13.4822  13.4822  14.7317  18.6606  20.7027  20.7027  22.8506  23.0177
    23.0177  26.7557  29.4357  29.4357  31.6980  32.0478  32.0478  34.9865
    35.7777  35.8086  35.8086  38.2727  38.2727  39.4290  39.4290  42.1750
    43.7240  43.8787  44.6391  44.6391  46.3849  46.3849  48.4865  49.0671

          k = 0.2033 0.2033 0.2033 (  3362 PWs)   bands (ev):

    -4.8053   1.4340   5.1016   5.1016   7.7459   9.4652   9.4652  13.2346
    13.3643  13.3643  14.7381  18.3946  20.7238  20.7238  23.0274  23.0274
    23.0459  26.4676  29.4331  29.4331  32.0246  32.0246  32.0815  34.9147
    35.7088  36.1772  36.1772  38.3630  38.3630  39.5052  39.5052  42.5756
    43.8483  44.0985  44.3238  44.3238  46.4060  46.4060  48.5403  49.0740

          k = 0.1945 0.1945 0.1945 (  3362 PWs)   bands (ev):

    -4.8880   1.6447   5.1386   5.1386   7.7880   9.4600   9.4600  13.0486
    13.2606  13.2606  14.7644  18.1278  20.6649  20.6649  23.1248  23.1248
    23.2398  26.1970  29.4252  29.4252  31.9997  31.9997  32.4477  34.8478
    35.6409  36.5452  36.5452  38.4601  38.4601  39.5663  39.5663  42.9802
    43.9672  44.0273  44.0273  44.3264  46.4350  46.4350  48.6017  49.0848

          k = 0.1856 0.1856 0.1856 (  3365 PWs)   bands (ev):

    -4.9679   1.8594   5.1774   5.1774   7.8320   9.4485   9.4485  12.8498
    13.1717  13.1717  14.8033  17.8649  20.5410  20.5410  23.2950  23.2950
    23.4216  25.9518  29.4133  29.4133  31.9732  31.9732  32.7846  34.7991
    35.5744  36.9060  36.9060  38.5643  38.5643  39.6092  39.6092  43.3815
    43.7604  43.7604  44.0829  44.5619  46.4702  46.4702  48.6703  49.0978

          k = 0.1768 0.1768 0.1768 (  3362 PWs)   bands (ev):

    -5.0448   2.0775   5.2178   5.2178   7.8775   9.4302   9.4302  12.6425
    13.0983  13.0983  14.8491  17.6100  20.3721  20.3721  23.5178  23.5178
    23.5771  25.7444  29.3983  29.3983  31.9455  31.9455  33.0713  34.7906
    35.5095  37.2505  37.2505  38.6749  38.6749  39.6337  39.6337  43.5332
    43.5332  43.7609  44.2083  44.8048  46.5108  46.5108  48.7447  49.1118

          k = 0.1679 0.1679 0.1679 (  3368 PWs)   bands (ev):

    -5.1187   2.2988   5.2598   5.2598   7.9245   9.4048   9.4048  12.4291
    13.0405  13.0405  14.8967  17.3672  20.1751  20.1751  23.6862  23.7765
    23.7765  25.5935  29.3811  29.3811  31.9167  31.9167  33.2776  34.8528
    35.4466  37.5645  37.5645  38.7878  38.7878  39.6485  39.6485  43.3547
    43.3547  44.0536  44.4027  45.0547  46.5562  46.5562  48.8200  49.1260

          k = 0.1591 0.1591 0.1591 (  3368 PWs)   bands (ev):

    -5.1893   2.5230   5.3033   5.3033   7.9728   9.3720   9.3720  12.2115
    12.9985  12.9985  14.9411  17.1412  19.9616  19.9616  23.7264  24.0594
    24.0594  25.5206  29.3625  29.3625  31.8869  31.8869  33.3804  35.0095
    35.3859  37.8284  37.8284  38.8892  38.8892  39.6807  39.6807  43.2312
    43.2312  44.1977  44.7226  45.3113  46.6060  46.6060  48.8832  49.1396

          k = 0.1503 0.1503 0.1503 (  3362 PWs)   bands (ev):

    -5.2565   2.7496   5.3480   5.3480   8.0222   9.3321   9.3321  11.9908
    12.9721  12.9721  14.9763  16.9376  19.7394  19.7394  23.6854  24.3586
    24.3586  25.5375  29.3431  29.3431  31.8562  31.8562  33.3863  35.2540
    35.3275  38.0161  38.0161  38.9545  38.9545  39.7776  39.7776  43.1649
[...]

    -1.9641  -1.5862   3.1850   3.1850   6.6577   6.7468  15.7711  15.7711
    16.8276  16.8276  18.0794  18.4634  18.5440  18.8465  24.2392  24.6662
    25.2203  25.2203  26.0707  26.0707  26.9471  27.3580  30.6095  30.9229
    34.7616  34.7616  39.2166  39.6404  39.6404  40.0099  40.8585  40.9140
    43.5614  43.6744  44.9756  44.9756  45.7067  45.7067  47.0876  47.1161

          k = 0.0000 0.6718 0.0000 (  3330 PWs)   bands (ev):

    -2.1482  -1.3926   3.1922   3.1922   6.6240   6.8023  15.6196  15.6196
    16.9816  16.9816  17.8554  18.2542  18.7844  19.0157  23.9707  24.7770
    24.8942  24.8942  26.4216  26.4216  26.8812  27.6502  30.4549  31.0810
    34.7479  34.7479  38.7415  39.6678  39.6678  40.2945  40.8341  40.9455
    43.5955  43.8523  44.9843  44.9843  45.6780  45.6780  47.0908  47.1493

          k = 0.0000 0.6541 0.0000 (  3330 PWs)   bands (ev):

    -2.3287  -1.1960   3.2043   3.2043   6.5973   6.8652  15.4247  15.4247
    17.1804  17.1804  17.6370  18.0359  19.0302  19.1658  23.6869  24.5608
    24.5608  24.7970  26.7967  26.7967  26.9346  27.9750  30.3030  31.2400
    34.7256  34.7256  38.2354  39.7131  39.7131  40.4928  40.8113  40.9799
    43.6694  44.1195  44.9989  44.9989  45.6288  45.6288  47.1055  47.1976

          k = 0.0000 0.6364 0.0000 (  3330 PWs)   bands (ev):

    -2.5057  -0.9967   3.2212   3.2212   6.5775   6.9357  15.2105  15.2105
    17.3993  17.3993  17.4241  17.8096  19.2815  19.2930  23.3965  24.2335
    24.2335  24.7414  27.0953  27.1829  27.1829  28.3197  30.1564  31.3999
    34.6953  34.6953  37.7105  39.7756  39.7756  40.6119  40.7897  41.0174
    43.7717  44.4641  45.0192  45.0192  45.5566  45.5566  47.1319  47.2648

          k = 0.0000 0.6187 0.0000 (  3334 PWs)   bands (ev):

    -2.6790  -0.7949   3.2428   3.2428   6.5646   7.0137  14.9873  14.9873
    17.2168  17.5767  17.6271  17.6271  19.3930  19.5380  23.1047  23.9165
    23.9165  24.6440  27.3333  27.5763  27.5763  28.6705  30.0222  31.5610
    34.6581  34.6581  37.1752  39.8545  39.8545  40.6680  40.7689  41.0581
    43.8940  44.8624  45.0449  45.0449  45.4591  45.4591  47.1703  47.3579

          k = 0.0000 0.6010 0.0000 (  3342 PWs)   bands (ev):

    -2.8485  -0.5905   3.2693   3.2693   6.5584   7.0994  14.7598  14.7598
    17.0152  17.3379  17.8579  17.8579  19.4613  19.7998  22.8148  23.6125
    23.6125  24.5367  27.6204  27.9753  27.9753  28.9991  29.9237  31.7235
    34.6149  34.6149  36.6363  39.9491  39.9491  40.6795  40.7481  41.1022
    44.0301  45.0747  45.0747  45.2829  45.3343  45.3343  47.2215  47.4889

          k = 0.0000 0.5834 0.0000 (  3342 PWs)   bands (ev):

    -3.0140  -0.3840   3.3005   3.3005   6.5589   7.1928  14.5303  14.5303
    16.8192  17.0942  18.0877  18.0877  19.4936  20.0668  22.5292  23.3241
    23.3241  24.4418  27.9371  28.3785  28.3785  29.2225  29.9403  31.8880
    34.5673  34.5673  36.0987  40.0582  40.0582  40.6617  40.7268  41.1497
    44.1755  45.0947  45.0947  45.1935  45.1935  45.6897  47.2859  47.6771

          k = 0.0000 0.5657 0.0000 (  3362 PWs)   bands (ev):

    -3.1755  -0.1753   3.3365   3.3365   6.5658   7.2939  14.3001  14.3001
    16.6289  16.8460  18.3127  18.3127  19.4869  20.3390  22.2492  23.0541
    23.0541  24.3735  28.2711  28.7845  28.7845  29.2415  30.1677  32.0552
    34.5165  34.5165  35.5668  40.1809  40.1809  40.6265  40.7040  41.2007
    44.3266  44.9651  44.9651  45.1749  45.1749  46.0455  47.3642  47.9463

          k = 0.0000 0.5480 0.0000 (  3362 PWs)   bands (ev):

    -3.3329   0.0354   3.3772   3.3772   6.5790   7.4028  14.0700  14.0700
    16.4442  16.5941  18.5286  18.5286  19.4397  20.6162  21.9760  22.8065
    22.8065  24.3395  28.6142  29.1355  29.1921  29.1921  30.5228  32.2261
    34.4643  34.4643  35.0450  40.3160  40.3160  40.5823  40.6789  41.2553
    44.4805  44.7443  44.7443  45.2201  45.2201  46.3245  47.4570  48.3120

          k = 0.0000 0.5303 0.0000 (  3370 PWs)   bands (ev):

    -3.4860   0.2478   3.4226   3.4226   6.5985   7.5194  13.8404  13.8404
    16.2653  16.3390  18.7304  18.7304  19.3527  20.8984  21.7102  22.5864
    22.5864  24.3432  28.9603  28.9848  29.5994  29.5994  30.9210  32.4021
    34.4125  34.4125  34.5383  40.4625  40.4625  40.5351  40.6502  41.3134
    44.4876  44.4876  44.6350  45.2750  45.2750  46.5255  47.5650  48.7667

          k = 0.0000 0.5127 0.0000 (  3363 PWs)   bands (ev):

    -3.6349   0.4618   3.4726   3.4726   6.6240   7.6436  13.6117  13.6117
    16.0811  16.0921  18.9111  18.9111  19.2287  21.1856  21.4525  22.4004
    22.4004  24.3842  28.8129  29.3040  30.0046  30.0046  31.3314  32.5849
    34.0544  34.3635  34.3635  40.4894  40.6167  40.6191  40.6191  41.3752
    44.2010  44.2010  44.7883  45.3367  45.3367  46.6649  47.6886  48.9129

          k = 0.0000 0.4950 0.0000 (  3355 PWs)   bands (ev):

    -3.7793   0.6773   3.5272   3.5272   6.6555   7.7754  13.3839  13.3839
    15.8211  15.9247  19.0626  19.0626  19.0721  21.2030  21.4776  22.2570
    22.2570  24.4598  28.6258  29.6406  30.4046  30.4046  31.7315  32.7768
    33.6102  34.3201  34.3201  40.4485  40.5770  40.7840  40.7840  41.4405
    43.8895  43.8895  44.9390  45.4047  45.4047  46.7604  47.8280  48.8923

          k = 0.0000 0.4773 0.0000 (  3347 PWs)   bands (ev):

    -3.9193   0.8940   3.5864   3.5864   6.6928   7.9147  13.1572  13.1572
    15.5594  15.7630  18.8880  19.1755  19.1755  20.9621  21.7744  22.1654
    22.1654  24.5659  28.4247  29.9649  30.7959  30.7959  32.0663  32.9806
    33.2598  34.2862  34.2862  40.4151  40.5293  40.9551  40.9551  41.5094
    43.5590  43.5590  45.0862  45.4789  45.4789  46.8244  47.9831  48.8927

          k = 0.0000 0.4596 0.0000 (  3347 PWs)   bands (ev):

    -4.0547   1.1118   3.6500   3.6500   6.7356   8.0612  12.9318  12.9318
    15.2967  15.6071  18.6817  19.2419  19.2419  20.7299  22.0758  22.1336
    22.1336  24.6982  28.2086  30.2721  31.1728  31.1728  32.1589  33.1811
    33.1994  34.2668  34.2668  40.3913  40.4717  41.1278  41.1278  41.5817
    43.2172  43.2172  45.2292  45.5590  45.5590  46.8632  48.1538  48.7177

          k = 0.0000 0.4419 0.0000 (  3355 PWs)   bands (ev):

    -4.1856   1.3305   3.7181   3.7181   6.7839   8.2148  12.7077  12.7077
    15.0334  15.4570  18.4579  19.2582  19.2582  20.5063  22.1654  22.1654
    22.3816  24.8523  27.9760  30.5573  31.5278  31.5278  31.9339  33.4361
    33.4513  34.2695  34.2695  40.3790  40.4021  41.2926  41.2926  41.6574
    42.8774  42.8774  45.3677  45.6451  45.6451  46.8802  48.3225  48.3395

          k = 0.0000 0.4243 0.0000 (  3355 PWs)   bands (ev):

    -4.3117   1.5500   3.7906   3.7906   6.8374   8.3749  12.4851  12.4851
    14.7704  15.3126  18.2212  19.2268  19.2268  20.2913  22.2582  22.2582
    22.6918  25.0242  27.7252  30.8162  31.6047  31.8502  31.8502  33.6933
    33.8590  34.3043  34.3043  40.3184  40.3798  41.4224  41.4224  41.7363
    42.5697  42.5697  45.5016  45.7372  45.7372  46.8763  47.9485  48.5394

          k = 0.0000 0.4066 0.0000 (  3363 PWs)   bands (ev):

    -4.4331   1.7701   3.8673   3.8673   6.8960   8.5412  12.2639  12.2639
    14.5083  15.1741  17.9751  19.1558  19.1558  20.0848  22.4042  22.4042
    23.0062  25.2106  27.4549  31.0457  31.2680  32.1269  32.1269  33.9724
    34.3089  34.3839  34.3839  40.2183  40.3951  41.4426  41.4426  41.8184
    42.3717  42.3717  45.6312  45.8351  45.8351  46.8516  47.5982  48.7524

          k = 0.0000 0.3889 0.0000 (  3355 PWs)   bands (ev):

    -4.5498   1.9906   3.9482   3.9482   6.9593   8.7129  12.0443  12.0443
    14.2481  15.0414  17.7227  19.0552  19.0552  19.8866  22.5933  22.5933
    23.3246  25.4087  27.1643  30.9488  31.2443  32.3454  32.3454  34.2734
    34.5199  34.5199  34.7768  40.0995  40.4263  41.2663  41.2663  41.9034
    42.3728  42.3728  45.7567  45.9388  45.9388  46.8056  47.2740  48.9773

          k = 0.0000 0.3712 0.0000 (  3359 PWs)   bands (ev):

    -4.6615   2.2114   4.0332   4.0332   7.0272   8.8892  11.8265  11.8265
    13.9910  14.9146  17.4666  18.9346  18.9346  19.6965  22.8157  22.8157
    23.6468  25.6160  26.8539  30.6552  31.4119  32.4996  32.4996  34.5944
    34.7174  34.7174  35.2545  39.9600  40.4748  40.9502  40.9502  41.9912
    42.5190  42.5190  45.8785  46.0482  46.0482  46.7379  46.9780  49.1443

          k = 0.0000 0.3536 0.0000 (  3359 PWs)   bands (ev):

    -4.7684   2.4323   4.1221   4.1221   7.0994   9.0688  11.6105  11.6105
    13.7383  14.7936  17.2090  18.8018  18.8018  19.5141  23.0638  23.0638
    23.9726  25.8305  26.5251  30.3894  31.5497  32.5937  32.5937  34.9326
    34.9711  34.9711  35.7384  39.7983  40.5418  40.5779  40.5779  42.0815
    42.7289  42.7289  45.9969  46.1633  46.1633  46.6485  46.7120  49.1884

          k = 0.0000 0.3359 0.0000 (  3359 PWs)   bands (ev):

    -4.8703   2.6531   4.2148   4.2148   7.1755   9.2501  11.3965  11.3965
    13.4917  14.6784  16.9517  18.6627  18.6627  19.3392  23.3313  23.3313
    24.3016  26.0506  26.1805  30.1512  31.6597  32.6394  32.6394  35.2679
    35.2679  35.2841  36.2264  39.6132  40.1837  40.1837  40.6286  42.1740
    42.9705  42.9705  46.1123  46.2839  46.2839  46.4771  46.5380  49.2195

          k = 0.0000 0.3182 0.0000 (  3355 PWs)   bands (ev):

    -4.9673   2.8737   4.3111   4.3111   7.2552   9.4308  11.1848  11.1848
    13.2538  14.5691  16.6962  18.5215  18.5215  19.1714  23.6141  23.6141
    24.6335  25.8233  26.2747  29.9388  31.7442  32.6494  32.6494  35.5935
    35.5935  35.6443  36.7171  39.4046  39.7807  39.7807  40.7366  42.2684
    43.2331  43.2331  46.2250  46.2738  46.4078  46.4098  46.4098  49.2327

          k = 0.0000 0.3005 0.0000 (  3347 PWs)   bands (ev):

    -5.0592   3.0938   4.4108   4.4108   7.3382   9.6074  10.9754  10.9754
    13.0279  14.4657  16.4438  18.3814  18.3814  19.0102  23.9086  23.9086
    24.9679  25.4572  26.5017  29.7501  31.8056  32.6343  32.6343  35.9352
    35.9352  36.0090  37.2092  39.1730  39.3755  39.3755  40.8669  42.3643
    43.5125  43.5125  46.1017  46.2597  46.3350  46.5407  46.5407  49.2242

          k = 0.0000 0.2828 0.0000 (  3351 PWs)   bands (ev):

    -5.1461   3.3132   4.5137   4.5137   7.4239   9.7753  10.7688  10.7688
    12.8187  14.3681  16.1959  18.2444  18.2444  18.8551  24.2125  24.2125
    25.0860  25.3044  26.7304  29.5825  31.8460  32.6014  32.6014  36.2833
    36.2833  36.3736  37.7017  38.9195  38.9725  38.9725  41.0211  42.4614
    43.8071  43.8071  45.9596  46.0963  46.4424  46.6761  46.6761  49.1926

          k = 0.0000 0.2652 0.0000 (  3339 PWs)   bands (ev):

    -5.2278   3.5317   4.6194   4.6194   7.5119   9.9275  10.5652  10.5652
    12.6329  14.2764  15.9535  18.1123  18.1123  18.7057  24.5238  24.5238
    24.7134  25.6424  26.9598  29.4337  31.8675  32.5554  32.5554  36.6295
    36.6295  36.7338  38.1933  38.5759  38.5759  38.6463  41.2004  42.5591
    44.1163  44.1163  45.8457  45.9204  46.5472  46.8156  46.8156  49.1391

          k = 0.0000 0.2475 0.0000 (  3343 PWs)   bands (ev):

    -5.3044   3.7488   4.7277   4.7277   7.6015  10.0545  10.3650  10.3650
    12.4800  14.1907  15.7177  17.9862  17.9862  18.5614  24.3431  24.8409
    24.8409  25.9812  27.1888  29.3014  31.8717  32.4991  32.4991  36.9638
    36.9638  37.0855  38.1931  38.1931  38.3560  38.6828  41.4058  42.6568
    44.4399  44.4399  45.7354  45.7577  46.6491  46.9581  46.9581  49.0675

          k = 0.0000 0.2298 0.0000 (  3355 PWs)   bands (ev):

    -5.3759   3.9643   4.8381   4.8381   7.6923  10.1444  10.1687  10.1687
    12.3715  14.1108  15.4897  17.8670  17.8670  18.4215  23.9785  25.1623
    25.1623  26.3200  27.4165  29.1838  31.8602  32.4340  32.4340  37.2544
    37.2544  37.4250  37.8540  37.8540  38.0514  39.1687  41.6380  42.7540
    44.7779  44.7779  45.5444  45.6929  46.7478  47.1021  47.1021  48.9837

          k = 0.0000 0.2121 0.0000 (  3363 PWs)   bands (ev):

    -5.4422   4.1775   4.9502   4.9502   7.7833   9.9768   9.9768  10.1856
    12.3187  14.0368  15.2705  17.7552  17.7552  18.2855  23.6230  25.4867
    25.4867  26.6576  27.6420  29.0793  31.8345  32.3610  32.3610  37.2771
    37.2771  37.7360  37.7490  37.7820  37.7820  39.6495  41.8971  42.8499
    45.1302  45.1302  45.3508  45.6483  46.8430  47.2452  47.2452  48.8951

          k = 0.0000 0.1945 0.0000 (  3363 PWs)   bands (ev):

    -5.5032   4.3878   5.0633   5.0633   7.8739   9.7900   9.7900  10.1718
    12.3273  13.9687  15.0613  17.6514  17.6514  18.1527  23.2799  25.8127
    25.8127  26.9930  27.8642  28.9865  31.7958  32.2798  32.2798  36.9823
    36.9823  37.4132  38.0264  38.0264  38.0549  40.1230  42.1818  42.9438
    45.1582  45.4963  45.4963  45.6209  46.9341  47.3832  47.3832  48.8110

          k = 0.0000 0.1768 0.0000 (  3371 PWs)   bands (ev):

    -5.5590   4.5944   5.1766   5.1766   7.9630   9.6091   9.6091  10.1062
    12.3935  13.9065  14.8632  17.5559  17.5559  18.0226  22.9523  26.1389
    26.1389  27.3243  28.0822  28.9044  31.7454  32.1900  32.1900  36.6525
    36.6525  37.0868  38.3051  38.3051  38.3406  40.5869  42.4898  43.0348
    44.9705  45.6079  45.8756  45.8756  47.0204  47.5092  47.5092  48.7432

          k = 0.0000 0.1591 0.0000 (  3371 PWs)   bands (ev):

    -5.6096   4.7962   5.2891   5.2891   8.0496   9.4352   9.4352  10.0001
    12.5055  13.8502  14.6774  17.4689  17.4689  17.8949  22.6435  26.4634
    26.4634  27.6496  28.2946  28.8321  31.6846  32.0907  32.0907  36.3328
    36.3328  36.7608  38.5737  38.5737  38.6048  41.0382  42.8158  43.1220
    44.7931  45.6065  46.2664  46.2664  47.1013  47.6127  47.6127  48.7072

          k = 0.0000 0.1414 0.0000 (  3379 PWs)   bands (ev):

    -5.6549   4.9918   5.3998   5.3998   8.1325   9.2695   9.2695   9.8669
    12.6487  13.7998  14.5054  17.3908  17.3908  17.7695  22.3567  26.7841
    26.7841  27.9661  28.5001  28.7689  31.6150  31.9813  31.9813  36.0333
    36.0333  36.4395  38.8236  38.8236  38.8465  41.4733  43.1503  43.2043
    44.6347  45.6138  46.6655  46.6655  47.1759  47.6824  47.6824  48.7199

          k = 0.0000 0.1237 0.0000 (  3375 PWs)   bands (ev):

    -5.6949   5.1791   5.5070   5.5070   8.2105   9.1136   9.1136   9.7193
    12.8097  13.7554  14.3486  17.3216  17.3216  17.6468  22.0951  27.0983
    27.0983  28.2705  28.6971  28.7142  31.5381  31.8613  31.8613  35.7595
    35.7595  36.1277  39.0509  39.0509  39.0650  41.8874  43.2806  43.4713
    44.5149  45.6274  47.0644  47.0644  47.2435  47.7175  47.7175  48.7923

          k = 0.0000 0.1061 0.0000 (  3375 PWs)   bands (ev):

    -5.7296   5.3558   5.6089   5.6089   8.2822   8.9693   8.9693   9.5672
    12.9771  13.7169  14.2083  17.2615  17.2615  17.5281  21.8616  27.4023
    27.4023  28.5584  28.6676  28.8834  31.4562  31.7311  31.7311  35.5154
    35.5154  35.8313  39.2531  39.2531  39.2595  42.2750  43.3498  43.7212
    44.4876  45.6448  47.3032  47.4233  47.4233  47.7602  47.7602  48.9228

          k = 0.0000 0.0884 0.0000 (  3371 PWs)   bands (ev):

    -5.7589   5.5186   5.7032   5.7032   8.3461   8.8391   8.8391   9.4194
    13.1412  13.6843  14.0862  17.2105  17.2105  17.4155  21.6590  27.6909
    27.6909  28.6287  28.8239  29.0561  31.3719  31.5931  31.5931  35.3047
    35.3047  35.5567  39.4281  39.4281  39.4291  42.6288  43.4109  43.8128
    44.6340  45.6638  47.3542  47.5658  47.5658  47.9934  47.9934  49.1032

          k = 0.0000 0.0707 0.0000 (  3371 PWs)   bands (ev):

    -5.7830   5.6633   5.7871   5.7871   8.4009   8.7258   8.7258   9.2835
    13.2928  13.6576  13.9838  17.1688  17.1688  17.3125  21.4899  27.9569
    27.9569  28.5972  29.0602  29.2115  31.2890  31.4522  31.4522  35.1301
    35.1301  35.3120  39.5721  39.5739  39.5739  42.9401  43.4626  43.7822
    44.9090  45.6824  47.3960  47.5553  47.5553  48.3543  48.3543  49.3291

          k = 0.0000 0.0530 0.0000 (  3375 PWs)   bands (ev):

    -5.8017   5.7848   5.8575   5.8575   8.4452   8.6325   8.6325   9.1668
    13.4232  13.6369  13.9023  17.1362  17.1362  17.2235  21.3564  28.1901
    28.1901  28.5729  29.2587  29.3445  31.2126  31.3171  31.3171  34.9932
    34.9932  35.1063  39.6868  39.6891  39.6891  43.1991  43.5041  43.7189
    45.2087  45.6988  47.4282  47.5237  47.5237  48.7009  48.7009  49.3496

          k = 0.0000 0.0354 0.0000 (  3371 PWs)   bands (ev):

    -5.8151   5.8776   5.9110   5.9110   8.4777   8.5626   8.5626   9.0767
    13.5241  13.6220  13.8432  17.1130  17.1130  17.1541  21.2598  28.3764
    28.3764  28.5556  29.4102  29.4482  31.1492  31.2010  31.2010  34.8952
    34.8952  34.9494  39.7708  39.7724  39.7724  43.3948  43.5343  43.6609
    45.4726  45.7117  47.4508  47.4946  47.4946  48.9928  48.9928  49.3135

          k = 0.0000 0.0177 0.0000 (  3383 PWs)   bands (ev):

    -5.8231   5.9360   5.9446   5.9446   8.4977   8.5192   8.5192   9.0194
    13.5882  13.6131  13.8073  17.0990  17.0990  17.1097  21.2015  28.4989
    28.4989  28.5453  29.5056  29.5150  31.1067  31.1206  31.1206  34.8363
    34.8363  34.8505  39.8223  39.8228  39.8228  43.5172  43.5528  43.6222
    45.6562  45.7198  47.4641  47.4752  47.4752  49.2007  49.2007  49.2896

          k = 0.0000 0.0000 0.0000 (  3383 PWs)   bands (ev):

    -5.8258   5.9560   5.9560   5.9560   8.5044   8.5044   8.5044   8.9997
    13.6102  13.6102  13.7952  17.0943  17.0943  17.0943  21.1820  28.5419
    28.5419  28.5419  29.5382  29.5382  31.0916  31.0916  31.0916  34.8167
    34.8167  34.8167  39.8396  39.8396  39.8396  43.5590  43.5590  43.6088
    45.7226  45.7226  47.4685  47.4685  47.4685  49.2808  49.2808  49.2808

     Writing all to output data dir ./wavefunc/Si.save/
 
     init_run     :      0.05s CPU      0.17s WALL (       1 calls)
     electrons    :     19.01s CPU     19.50s WALL (       1 calls)

     Called by init_run:
     wfcinit      :      0.00s CPU      0.00s WALL (       1 calls)
     wfcinit:wfcr :      0.53s CPU      0.55s WALL (     161 calls)
     potinit      :      0.00s CPU      0.09s WALL (       1 calls)
     hinit0       :      0.02s CPU      0.03s WALL (       1 calls)

     Called by electrons:
     c_bands      :     19.01s CPU     19.48s WALL (       1 calls)
     v_of_rho     :      0.00s CPU      0.01s WALL (       1 calls)
     v_h          :      0.00s CPU      0.00s WALL (       1 calls)
     v_xc         :      0.00s CPU      0.01s WALL (       1 calls)

     Called by c_bands:
     init_us_2    :      0.00s CPU      0.00s WALL (     161 calls)
     init_us_2:cp :      0.00s CPU      0.00s WALL (     161 calls)
     cegterg      :     18.40s CPU     18.80s WALL (     322 calls)

     Called by sum_band:

     Called by *egterg:
     cdiaghg      :      8.08s CPU      8.18s WALL (    5200 calls)
     cegterg:over :      0.80s CPU      0.83s WALL (    5039 calls)
     cegterg:upda :      0.29s CPU      0.29s WALL (    5039 calls)
     cegterg:last :      0.50s CPU      0.51s WALL (    2936 calls)
     h_psi        :      8.74s CPU      9.02s WALL (    5522 calls)
     g_psi        :      0.06s CPU      0.06s WALL (    5039 calls)

     Called by h_psi:
     h_psi:calbec :      0.21s CPU      0.22s WALL (    5522 calls)
     vloc_psi     :      8.39s CPU      8.66s WALL (    5522 calls)
     add_vuspsi   :      0.09s CPU      0.09s WALL (    5522 calls)

     General routines
     calbec       :      0.21s CPU      0.22s WALL (    5522 calls)
     fft          :      0.00s CPU      0.00s WALL (      11 calls)
     ffts         :      0.00s CPU      0.00s WALL (       1 calls)
     fftw         :      6.96s CPU      7.17s WALL (  253006 calls)
     interpolate  :      0.00s CPU      0.00s WALL (       1 calls)
     davcio       :      0.02s CPU      0.02s WALL (     322 calls)
 
     Parallel routines
 
     PWSCF        :     19.42s CPU     21.90s WALL

 
   This run was terminated on:  14:30:46  16Jan2024            

=------------------------------------------------------------------------------=
   JOB DONE.
=------------------------------------------------------------------------------=
