[0] MPI startup(): Intel(R) MPI Library, Version 2021.6  Build 20220227 (id: 28877f3f32)
[0] MPI startup(): Copyright (C) 2003-2022 Intel Corporation.  All rights reserved.
[0] MPI startup(): library kind: release
[0] MPI startup(): libfabric version: 1.13.2rc1-impi
[0] MPI startup(): libfabric provider: psm2
[0] MPI startup(): File "/opt/intel/oneapi/mpi/2021.6.0/etc/tuning_icx_shm-ofi_psm2.dat" not found
[0] MPI startup(): Load tuning file: "/opt/intel/oneapi/mpi/2021.6.0/etc/tuning_icx_shm-ofi.dat"
[0] MPI startup(): File "/opt/intel/oneapi/mpi/2021.6.0/etc/tuning_icx_shm-ofi.dat" not found
[0] MPI startup(): Load tuning file: "/opt/intel/oneapi/mpi/2021.6.0/etc/tuning_clx-ap_shm-ofi.dat"
[0] MPI startup(): Rank    Pid      Node name  Pin cpu
[0] MPI startup(): 0       593997   n008.hpc   {16}
[0] MPI startup(): 1       593998   n008.hpc   {17}
[0] MPI startup(): 2       593999   n008.hpc   {18}
[0] MPI startup(): 3       594000   n008.hpc   {19}
[0] MPI startup(): 4       594001   n008.hpc   {20}
[0] MPI startup(): 5       594002   n008.hpc   {21}
[0] MPI startup(): 6       594003   n008.hpc   {22}
[0] MPI startup(): 7       594004   n008.hpc   {23}
[0] MPI startup(): 8       594005   n008.hpc   {24}
[0] MPI startup(): 9       594006   n008.hpc   {25}
[0] MPI startup(): 10      594007   n008.hpc   {26}
[0] MPI startup(): 11      594008   n008.hpc   {27}
[0] MPI startup(): 12      594009   n008.hpc   {28}
[0] MPI startup(): 13      594010   n008.hpc   {29}
[0] MPI startup(): 14      594011   n008.hpc   {30}
[0] MPI startup(): 15      594012   n008.hpc   {31}
[0] MPI startup(): I_MPI_ROOT=/opt/intel/oneapi/mpi/2021.6.0
[0] MPI startup(): I_MPI_MPIRUN=mpirun
[0] MPI startup(): I_MPI_HYDRA_TOPOLIB=hwloc
[0] MPI startup(): I_MPI_HYDRA_BOOTSTRAP=slurm
[0] MPI startup(): I_MPI_INTERNAL_MEM_POLICY=default
[0] MPI startup(): I_MPI_DEBUG=5

     Program PWSCF v.7.2 starts on 16Jan2024 at 14:30:37 

     This program is part of the open-source Quantum ESPRESSO suite
     for quantum simulation of materials; please cite
         "P. Giannozzi et al., J. Phys.:Condens. Matter 21 395502 (2009);
         "P. Giannozzi et al., J. Phys.:Condens. Matter 29 465901 (2017);
         "P. Giannozzi et al., J. Chem. Phys. 152 154105 (2020);
          URL http://www.quantum-espresso.org", 
     in publications or presentations arising from this work. More details at
     http://www.quantum-espresso.org/quote

     Parallel version (MPI), running on    16 processors

     MPI processes distributed on     1 nodes
     105128 MiB available memory on the printing compute node when the environment starts
 
     Waiting for input...
     Reading input from standard input
Warning: card  &IONS ignored
Warning: card   ION_DYNAMICS = 'DAMP' ignored
Warning: card  / ignored
Warning: card  &CELL ignored
Warning: card   CELL_DYNAMICS = 'DAMP-W' ignored
Warning: card   PRESS_CONV_THR = 0.1 ignored
Warning: card  / ignored

     Current dimensions of program PWSCF are:
     Max number of different atomic species (ntypx) = 10
     Max number of k-points (npk) =  40000
     Max angular momentum in pseudopotentials (lmaxx) =  4
     Message from routine input:
     WARNING: "startingwfc" set to atomic+random may spoil restart
     Message from routine setup:
     no reason to have ecutrho>4*ecutwfc
     Message from routine setup:
     using ibrav=0 with symmetry is DISCOURAGED, use correct ibrav instead
 
     R & G space division:  proc/nbgrp/npool/nimage =      16
     Subspace diagonalization in iterative solution of the eigenvalue problem:
     a serial algorithm will be used

 
     Parallelization info
     --------------------
     sticks:   dense  smooth     PW     G-vecs:    dense   smooth      PW
     Min         147      73     21                 4733     1675     267
     Max         151      74     22                 4735     1676     269
     Sum        2371    1177    349                75745    26813    4285
 
     Using Slab Decomposition
 


     bravais-lattice index     =            0
     lattice parameter (alat)  =       7.3195  a.u.
     unit-cell volume          =     277.2847 (a.u.)^3
     number of atoms/cell      =            2
     number of atomic types    =            1
     number of electrons       =         8.00
     number of Kohn-Sham states=           40
     kinetic-energy cutoff     =      80.0000  Ry
     charge density cutoff     =     640.0000  Ry
     Exchange-correlation= PBE
                           (   1   4   3   4   0   0   0)

     celldm(1)=   7.319481  celldm(2)=   0.000000  celldm(3)=   0.000000
     celldm(4)=   0.000000  celldm(5)=   0.000000  celldm(6)=   0.000000

     crystal axes: (cart. coord. in units of alat)
               a(1) = (   0.707107   0.707107   0.000000 )  
               a(2) = (   0.000000   0.707107   0.707107 )  
               a(3) = (   0.707107   0.000000   0.707107 )  

     reciprocal axes: (cart. coord. in units 2 pi/alat)
               b(1) = (  0.707107  0.707107 -0.707107 )  
               b(2) = ( -0.707107  0.707107  0.707107 )  
               b(3) = (  0.707107 -0.707107  0.707107 )  


     PseudoPot. # 1 for Si read from file:
     ../pseudo/Si_ONCV_PBE-1.2.upf
     MD5 check sum: 7f029a58b69e3aa87b46a36c608bf45e
     Pseudo is Norm-conserving, Zval =  4.0
     Generated using ONCVPSP code by D. R. Hamann
     Using radial grid of  602 points,  4 beta functions with: 
                l(1) =   0
                l(2) =   0
                l(3) =   1
                l(4) =   1

     atomic species   valence    mass     pseudopotential
        Si             4.00    28.08550     Si( 1.00)

     48 Sym. Ops., with inversion, found (24 have fractional translation)


                                    s                        frac. trans.

      isym =  1     identity                                     

 cryst.   s( 1) = (     1          0          0      )
                  (     0          1          0      )
                  (     0          0          1      )

 cart.    s( 1) = (  1.0000000  0.0000000  0.0000000 )
                  (  0.0000000  1.0000000  0.0000000 )
                  (  0.0000000  0.0000000  1.0000000 )


      isym =  2     180 deg rotation - cart. axis [0,0,1]        

 cryst.   s( 2) = (    -1          0          0      )
                  (    -1          0          1      )
                  (    -1          1          0      )

 cart.    s( 2) = ( -1.0000000  0.0000000  0.0000000 )
                  (  0.0000000 -1.0000000  0.0000000 )
                  (  0.0000000  0.0000000  1.0000000 )


      isym =  3     180 deg rotation - cart. axis [0,1,0]        

 cryst.   s( 3) = (     0          1         -1      )
                  (     1          0         -1      )
                  (     0          0         -1      )

 cart.    s( 3) = ( -1.0000000  0.0000000  0.0000000 )
                  (  0.0000000  1.0000000  0.0000000 )
                  (  0.0000000  0.0000000 -1.0000000 )


      isym =  4     180 deg rotation - cart. axis [1,0,0]        

 cryst.   s( 4) = (     0         -1          1      )
                  (     0         -1          0      )
                  (     1         -1          0      )

 cart.    s( 4) = (  1.0000000  0.0000000  0.0000000 )
                  (  0.0000000 -1.0000000  0.0000000 )
                  (  0.0000000  0.0000000 -1.0000000 )


      isym =  5     180 deg rotation - cart. axis [1,1,0]        

 cryst.   s( 5) = (     1          0          0      )    f =( -0.2500000 )
                  (     1         -1          0      )       ( -0.2500000 )
                  (     1          0         -1      )       ( -0.2500000 )

 cart.    s( 5) = (  0.0000000  1.0000000  0.0000000 )    f =( -0.3535534 )
                  (  1.0000000  0.0000000  0.0000000 )       ( -0.3535534 )
                  (  0.0000000  0.0000000 -1.0000000 )       ( -0.3535534 )


      isym =  6     180 deg rotation - cart. axis [1,-1,0]       

 cryst.   s( 6) = (    -1          0          0      )    f =( -0.2500000 )
                  (     0          0         -1      )       ( -0.2500000 )
                  (     0         -1          0      )       ( -0.2500000 )

 cart.    s( 6) = (  0.0000000 -1.0000000  0.0000000 )    f =( -0.3535534 )
                  ( -1.0000000  0.0000000  0.0000000 )       ( -0.3535534 )
                  (  0.0000000  0.0000000 -1.0000000 )       ( -0.3535534 )


      isym =  7      90 deg rotation - cart. axis [0,0,-1]       

 cryst.   s( 7) = (     0         -1          1      )    f =( -0.2500000 )
                  (     0          0          1      )       ( -0.2500000 )
                  (    -1          0          1      )       ( -0.2500000 )

 cart.    s( 7) = (  0.0000000  1.0000000  0.0000000 )    f =( -0.3535534 )
                  ( -1.0000000  0.0000000  0.0000000 )       ( -0.3535534 )
                  (  0.0000000  0.0000000  1.0000000 )       ( -0.3535534 )


      isym =  8      90 deg rotation - cart. axis [0,0,1]        

 cryst.   s( 8) = (     0          1         -1      )    f =( -0.2500000 )
                  (    -1          1          0      )       ( -0.2500000 )
                  (     0          1          0      )       ( -0.2500000 )

 cart.    s( 8) = (  0.0000000 -1.0000000  0.0000000 )    f =( -0.3535534 )
                  (  1.0000000  0.0000000  0.0000000 )       ( -0.3535534 )
                  (  0.0000000  0.0000000  1.0000000 )       ( -0.3535534 )


      isym =  9     180 deg rotation - cart. axis [1,0,1]        

 cryst.   s( 9) = (    -1          0          1      )    f =( -0.2500000 )
                  (     0         -1          1      )       ( -0.2500000 )
                  (     0          0          1      )       ( -0.2500000 )

 cart.    s( 9) = (  0.0000000  0.0000000  1.0000000 )    f =( -0.3535534 )
                  (  0.0000000 -1.0000000  0.0000000 )       ( -0.3535534 )
                  (  1.0000000  0.0000000  0.0000000 )       ( -0.3535534 )


      isym = 10     180 deg rotation - cart. axis [-1,0,1]       

 cryst.   s(10) = (     0         -1          0      )    f =( -0.2500000 )
                  (    -1          0          0      )       ( -0.2500000 )
                  (     0          0         -1      )       ( -0.2500000 )

 cart.    s(10) = (  0.0000000  0.0000000 -1.0000000 )    f =( -0.3535534 )
                  (  0.0000000 -1.0000000  0.0000000 )       ( -0.3535534 )
                  ( -1.0000000  0.0000000  0.0000000 )       ( -0.3535534 )


      isym = 11      90 deg rotation - cart. axis [0,1,0]        

 cryst.   s(11) = (     1          0         -1      )    f =( -0.2500000 )
                  (     1          0          0      )       ( -0.2500000 )
                  (     1         -1          0      )       ( -0.2500000 )

 cart.    s(11) = (  0.0000000  0.0000000  1.0000000 )    f =( -0.3535534 )
                  (  0.0000000  1.0000000  0.0000000 )       ( -0.3535534 )
                  ( -1.0000000  0.0000000  0.0000000 )       ( -0.3535534 )


      isym = 12      90 deg rotation - cart. axis [0,-1,0]       

 cryst.   s(12) = (     0          1          0      )    f =( -0.2500000 )
                  (     0          1         -1      )       ( -0.2500000 )
                  (    -1          1          0      )       ( -0.2500000 )

 cart.    s(12) = (  0.0000000  0.0000000 -1.0000000 )    f =( -0.3535534 )
                  (  0.0000000  1.0000000  0.0000000 )       ( -0.3535534 )
                  (  1.0000000  0.0000000  0.0000000 )       ( -0.3535534 )


      isym = 13     180 deg rotation - cart. axis [0,1,1]        

 cryst.   s(13) = (    -1          1          0      )    f =( -0.2500000 )
                  (     0          1          0      )       ( -0.2500000 )
                  (     0          1         -1      )       ( -0.2500000 )

 cart.    s(13) = ( -1.0000000  0.0000000  0.0000000 )    f =( -0.3535534 )
                  (  0.0000000  0.0000000  1.0000000 )       ( -0.3535534 )
                  (  0.0000000  1.0000000  0.0000000 )       ( -0.3535534 )


      isym = 14     180 deg rotation - cart. axis [0,1,-1]       

 cryst.   s(14) = (     0          0         -1      )    f =( -0.2500000 )
                  (     0         -1          0      )       ( -0.2500000 )
                  (    -1          0          0      )       ( -0.2500000 )

 cart.    s(14) = ( -1.0000000  0.0000000  0.0000000 )    f =( -0.3535534 )
                  (  0.0000000  0.0000000 -1.0000000 )       ( -0.3535534 )
                  (  0.0000000 -1.0000000  0.0000000 )       ( -0.3535534 )


      isym = 15      90 deg rotation - cart. axis [-1,0,0]       

 cryst.   s(15) = (     1         -1          0      )    f =( -0.2500000 )
                  (     1          0         -1      )       ( -0.2500000 )
                  (     1          0          0      )       ( -0.2500000 )

 cart.    s(15) = (  1.0000000  0.0000000  0.0000000 )    f =( -0.3535534 )
                  (  0.0000000  0.0000000  1.0000000 )       ( -0.3535534 )
                  (  0.0000000 -1.0000000  0.0000000 )       ( -0.3535534 )


      isym = 16      90 deg rotation - cart. axis [1,0,0]        

 cryst.   s(16) = (     0          0          1      )    f =( -0.2500000 )
                  (    -1          0          1      )       ( -0.2500000 )
                  (     0         -1          1      )       ( -0.2500000 )

 cart.    s(16) = (  1.0000000  0.0000000  0.0000000 )    f =( -0.3535534 )
                  (  0.0000000  0.0000000 -1.0000000 )       ( -0.3535534 )
                  (  0.0000000  1.0000000  0.0000000 )       ( -0.3535534 )


      isym = 17     120 deg rotation - cart. axis [-1,-1,-1]     

 cryst.   s(17) = (     0          0          1      )
                  (     1          0          0      )
                  (     0          1          0      )

 cart.    s(17) = (  0.0000000  1.0000000  0.0000000 )
                  (  0.0000000  0.0000000  1.0000000 )
                  (  1.0000000  0.0000000  0.0000000 )


      isym = 18     120 deg rotation - cart. axis [-1,1,1]       

 cryst.   s(18) = (     0          0         -1      )
                  (     0          1         -1      )
                  (     1          0         -1      )

 cart.    s(18) = (  0.0000000 -1.0000000  0.0000000 )
                  (  0.0000000  0.0000000  1.0000000 )
                  ( -1.0000000  0.0000000  0.0000000 )


      isym = 19     120 deg rotation - cart. axis [1,1,-1]       

 cryst.   s(19) = (     1         -1          0      )
                  (     0         -1          1      )
                  (     0         -1          0      )

 cart.    s(19) = (  0.0000000  1.0000000  0.0000000 )
                  (  0.0000000  0.0000000 -1.0000000 )
                  ( -1.0000000  0.0000000  0.0000000 )


      isym = 20     120 deg rotation - cart. axis [1,-1,1]       

 cryst.   s(20) = (    -1          1          0      )
                  (    -1          0          0      )
                  (    -1          0          1      )

 cart.    s(20) = (  0.0000000 -1.0000000  0.0000000 )
                  (  0.0000000  0.0000000 -1.0000000 )
                  (  1.0000000  0.0000000  0.0000000 )


      isym = 21     120 deg rotation - cart. axis [1,1,1]        

 cryst.   s(21) = (     0          1          0      )
                  (     0          0          1      )
                  (     1          0          0      )

 cart.    s(21) = (  0.0000000  0.0000000  1.0000000 )
                  (  1.0000000  0.0000000  0.0000000 )
                  (  0.0000000  1.0000000  0.0000000 )


      isym = 22     120 deg rotation - cart. axis [-1,1,-1]      

 cryst.   s(22) = (     0         -1          0      )
                  (     1         -1          0      )
                  (     0         -1          1      )

 cart.    s(22) = (  0.0000000  0.0000000  1.0000000 )
                  ( -1.0000000  0.0000000  0.0000000 )
                  (  0.0000000 -1.0000000  0.0000000 )


      isym = 23     120 deg rotation - cart. axis [1,-1,-1]      

 cryst.   s(23) = (    -1          0          1      )
                  (    -1          1          0      )
                  (    -1          0          0      )

 cart.    s(23) = (  0.0000000  0.0000000 -1.0000000 )
                  ( -1.0000000  0.0000000  0.0000000 )
                  (  0.0000000  1.0000000  0.0000000 )


      isym = 24     120 deg rotation - cart. axis [-1,-1,1]      

 cryst.   s(24) = (     1          0         -1      )
                  (     0          0         -1      )
                  (     0          1         -1      )

 cart.    s(24) = (  0.0000000  0.0000000 -1.0000000 )
                  (  1.0000000  0.0000000  0.0000000 )
                  (  0.0000000 -1.0000000  0.0000000 )


      isym = 25     inversion                                    

 cryst.   s(25) = (    -1          0          0      )    f =( -0.2500000 )
                  (     0         -1          0      )       ( -0.2500000 )
                  (     0          0         -1      )       ( -0.2500000 )

 cart.    s(25) = ( -1.0000000  0.0000000  0.0000000 )    f =( -0.3535534 )
                  (  0.0000000 -1.0000000  0.0000000 )       ( -0.3535534 )
                  (  0.0000000  0.0000000 -1.0000000 )       ( -0.3535534 )


      isym = 26     inv. 180 deg rotation - cart. axis [0,0,1]   

 cryst.   s(26) = (     1          0          0      )    f =( -0.2500000 )
                  (     1          0         -1      )       ( -0.2500000 )
                  (     1         -1          0      )       ( -0.2500000 )

 cart.    s(26) = (  1.0000000  0.0000000  0.0000000 )    f =( -0.3535534 )
                  (  0.0000000  1.0000000  0.0000000 )       ( -0.3535534 )
                  (  0.0000000  0.0000000 -1.0000000 )       ( -0.3535534 )


      isym = 27     inv. 180 deg rotation - cart. axis [0,1,0]   

 cryst.   s(27) = (     0         -1          1      )    f =( -0.2500000 )
                  (    -1          0          1      )       ( -0.2500000 )
                  (     0          0          1      )       ( -0.2500000 )

 cart.    s(27) = (  1.0000000  0.0000000  0.0000000 )    f =( -0.3535534 )
                  (  0.0000000 -1.0000000  0.0000000 )       ( -0.3535534 )
                  (  0.0000000  0.0000000  1.0000000 )       ( -0.3535534 )


      isym = 28     inv. 180 deg rotation - cart. axis [1,0,0]   

 cryst.   s(28) = (     0          1         -1      )    f =( -0.2500000 )
                  (     0          1          0      )       ( -0.2500000 )
                  (    -1          1          0      )       ( -0.2500000 )

 cart.    s(28) = ( -1.0000000  0.0000000  0.0000000 )    f =( -0.3535534 )
                  (  0.0000000  1.0000000  0.0000000 )       ( -0.3535534 )
                  (  0.0000000  0.0000000  1.0000000 )       ( -0.3535534 )


      isym = 29     inv. 180 deg rotation - cart. axis [1,1,0]   

 cryst.   s(29) = (    -1          0          0      )
                  (    -1          1          0      )
                  (    -1          0          1      )

 cart.    s(29) = (  0.0000000 -1.0000000  0.0000000 )
                  ( -1.0000000  0.0000000  0.0000000 )
                  (  0.0000000  0.0000000  1.0000000 )


      isym = 30     inv. 180 deg rotation - cart. axis [1,-1,0]  

 cryst.   s(30) = (     1          0          0      )
                  (     0          0          1      )
                  (     0          1          0      )

 cart.    s(30) = (  0.0000000  1.0000000  0.0000000 )
                  (  1.0000000  0.0000000  0.0000000 )
                  (  0.0000000  0.0000000  1.0000000 )


      isym = 31     inv.  90 deg rotation - cart. axis [0,0,-1]  

 cryst.   s(31) = (     0          1         -1      )
                  (     0          0         -1      )
                  (     1          0         -1      )

 cart.    s(31) = (  0.0000000 -1.0000000  0.0000000 )
                  (  1.0000000  0.0000000  0.0000000 )
                  (  0.0000000  0.0000000 -1.0000000 )


      isym = 32     inv.  90 deg rotation - cart. axis [0,0,1]   

 cryst.   s(32) = (     0         -1          1      )
                  (     1         -1          0      )
                  (     0         -1          0      )

 cart.    s(32) = (  0.0000000  1.0000000  0.0000000 )
                  ( -1.0000000  0.0000000  0.0000000 )
                  (  0.0000000  0.0000000 -1.0000000 )


      isym = 33     inv. 180 deg rotation - cart. axis [1,0,1]   

 cryst.   s(33) = (     1          0         -1      )
                  (     0          1         -1      )
                  (     0          0         -1      )

 cart.    s(33) = (  0.0000000  0.0000000 -1.0000000 )
                  (  0.0000000  1.0000000  0.0000000 )
                  ( -1.0000000  0.0000000  0.0000000 )


      isym = 34     inv. 180 deg rotation - cart. axis [-1,0,1]  

 cryst.   s(34) = (     0          1          0      )
                  (     1          0          0      )
                  (     0          0          1      )

 cart.    s(34) = (  0.0000000  0.0000000  1.0000000 )
                  (  0.0000000  1.0000000  0.0000000 )
                  (  1.0000000  0.0000000  0.0000000 )


      isym = 35     inv.  90 deg rotation - cart. axis [0,1,0]   

 cryst.   s(35) = (    -1          0          1      )
                  (    -1          0          0      )
                  (    -1          1          0      )

 cart.    s(35) = (  0.0000000  0.0000000 -1.0000000 )
                  (  0.0000000 -1.0000000  0.0000000 )
                  (  1.0000000  0.0000000  0.0000000 )


      isym = 36     inv.  90 deg rotation - cart. axis [0,-1,0]  

 cryst.   s(36) = (     0         -1          0      )
                  (     0         -1          1      )
                  (     1         -1          0      )

 cart.    s(36) = (  0.0000000  0.0000000  1.0000000 )
                  (  0.0000000 -1.0000000  0.0000000 )
                  ( -1.0000000  0.0000000  0.0000000 )


      isym = 37     inv. 180 deg rotation - cart. axis [0,1,1]   

 cryst.   s(37) = (     1         -1          0      )
                  (     0         -1          0      )
                  (     0         -1          1      )

 cart.    s(37) = (  1.0000000  0.0000000  0.0000000 )
                  (  0.0000000  0.0000000 -1.0000000 )
                  (  0.0000000 -1.0000000  0.0000000 )


      isym = 38     inv. 180 deg rotation - cart. axis [0,1,-1]  

 cryst.   s(38) = (     0          0          1      )
                  (     0          1          0      )
                  (     1          0          0      )

 cart.    s(38) = (  1.0000000  0.0000000  0.0000000 )
                  (  0.0000000  0.0000000  1.0000000 )
                  (  0.0000000  1.0000000  0.0000000 )


      isym = 39     inv.  90 deg rotation - cart. axis [-1,0,0]  

 cryst.   s(39) = (    -1          1          0      )
                  (    -1          0          1      )
                  (    -1          0          0      )

 cart.    s(39) = ( -1.0000000  0.0000000  0.0000000 )
                  (  0.0000000  0.0000000 -1.0000000 )
                  (  0.0000000  1.0000000  0.0000000 )


      isym = 40     inv.  90 deg rotation - cart. axis [1,0,0]   

 cryst.   s(40) = (     0          0         -1      )
                  (     1          0         -1      )
                  (     0          1         -1      )

 cart.    s(40) = ( -1.0000000  0.0000000  0.0000000 )
                  (  0.0000000  0.0000000  1.0000000 )
                  (  0.0000000 -1.0000000  0.0000000 )


      isym = 41     inv. 120 deg rotation - cart. axis [-1,-1,-1]

 cryst.   s(41) = (     0          0         -1      )    f =( -0.2500000 )
                  (    -1          0          0      )       ( -0.2500000 )
                  (     0         -1          0      )       ( -0.2500000 )

 cart.    s(41) = (  0.0000000 -1.0000000  0.0000000 )    f =( -0.3535534 )
                  (  0.0000000  0.0000000 -1.0000000 )       ( -0.3535534 )
                  ( -1.0000000  0.0000000  0.0000000 )       ( -0.3535534 )


      isym = 42     inv. 120 deg rotation - cart. axis [-1,1,1]  

 cryst.   s(42) = (     0          0          1      )    f =( -0.2500000 )
                  (     0         -1          1      )       ( -0.2500000 )
                  (    -1          0          1      )       ( -0.2500000 )

 cart.    s(42) = (  0.0000000  1.0000000  0.0000000 )    f =( -0.3535534 )
                  (  0.0000000  0.0000000 -1.0000000 )       ( -0.3535534 )
                  (  1.0000000  0.0000000  0.0000000 )       ( -0.3535534 )


      isym = 43     inv. 120 deg rotation - cart. axis [1,1,-1]  

 cryst.   s(43) = (    -1          1          0      )    f =( -0.2500000 )
                  (     0          1         -1      )       ( -0.2500000 )
                  (     0          1          0      )       ( -0.2500000 )

 cart.    s(43) = (  0.0000000 -1.0000000  0.0000000 )    f =( -0.3535534 )
                  (  0.0000000  0.0000000  1.0000000 )       ( -0.3535534 )
                  (  1.0000000  0.0000000  0.0000000 )       ( -0.3535534 )


      isym = 44     inv. 120 deg rotation - cart. axis [1,-1,1]  

 cryst.   s(44) = (     1         -1          0      )    f =( -0.2500000 )
                  (     1          0          0      )       ( -0.2500000 )
                  (     1          0         -1      )       ( -0.2500000 )

 cart.    s(44) = (  0.0000000  1.0000000  0.0000000 )    f =( -0.3535534 )
                  (  0.0000000  0.0000000  1.0000000 )       ( -0.3535534 )
                  ( -1.0000000  0.0000000  0.0000000 )       ( -0.3535534 )


      isym = 45     inv. 120 deg rotation - cart. axis [1,1,1]   

 cryst.   s(45) = (     0         -1          0      )    f =( -0.2500000 )
                  (     0          0         -1      )       ( -0.2500000 )
                  (    -1          0          0      )       ( -0.2500000 )

 cart.    s(45) = (  0.0000000  0.0000000 -1.0000000 )    f =( -0.3535534 )
                  ( -1.0000000  0.0000000  0.0000000 )       ( -0.3535534 )
                  (  0.0000000 -1.0000000  0.0000000 )       ( -0.3535534 )


      isym = 46     inv. 120 deg rotation - cart. axis [-1,1,-1] 

 cryst.   s(46) = (     0          1          0      )    f =( -0.2500000 )
                  (    -1          1          0      )       ( -0.2500000 )
                  (     0          1         -1      )       ( -0.2500000 )

 cart.    s(46) = (  0.0000000  0.0000000 -1.0000000 )    f =( -0.3535534 )
                  (  1.0000000  0.0000000  0.0000000 )       ( -0.3535534 )
                  (  0.0000000  1.0000000  0.0000000 )       ( -0.3535534 )


      isym = 47     inv. 120 deg rotation - cart. axis [1,-1,-1] 

 cryst.   s(47) = (     1          0         -1      )    f =( -0.2500000 )
                  (     1         -1          0      )       ( -0.2500000 )
                  (     1          0          0      )       ( -0.2500000 )

 cart.    s(47) = (  0.0000000  0.0000000  1.0000000 )    f =( -0.3535534 )
                  (  1.0000000  0.0000000  0.0000000 )       ( -0.3535534 )
                  (  0.0000000 -1.0000000  0.0000000 )       ( -0.3535534 )


      isym = 48     inv. 120 deg rotation - cart. axis [-1,-1,1] 

 cryst.   s(48) = (    -1          0          1      )    f =( -0.2500000 )
                  (     0          0          1      )       ( -0.2500000 )
                  (     0         -1          1      )       ( -0.2500000 )

 cart.    s(48) = (  0.0000000  0.0000000  1.0000000 )    f =( -0.3535534 )
                  ( -1.0000000  0.0000000  0.0000000 )       ( -0.3535534 )
                  (  0.0000000  1.0000000  0.0000000 )       ( -0.3535534 )


   Cartesian axes

     site n.     atom                  positions (alat units)
         1           Si  tau(   1) = (   0.0000000   0.0000000   0.0000000  )
         2           Si  tau(   2) = (   0.3535534   0.3535534   0.3535534  )

   Crystallographic axes

     site n.     atom                  positions (cryst. coord.)
         1           Si  tau(   1) = (  0.0000000  0.0000000  0.0000000  )
         2           Si  tau(   2) = (  0.2500000  0.2500000  0.2500000  )

     number of k points=   256  Gaussian smearing, width (Ry)=  0.0019
                       cart. coord. in units 2pi/alat
        k(    1) = (   0.0000000   0.0000000   0.0000000), wk =   0.0002500
        k(    2) = (   0.0353553  -0.0353553   0.0353553), wk =   0.0020000
        k(    3) = (   0.0707107  -0.0707107   0.0707107), wk =   0.0020000
        k(    4) = (   0.1060660  -0.1060660   0.1060660), wk =   0.0020000
        k(    5) = (   0.1414214  -0.1414214   0.1414214), wk =   0.0020000
        k(    6) = (   0.1767767  -0.1767767   0.1767767), wk =   0.0020000
        k(    7) = (   0.2121320  -0.2121320   0.2121320), wk =   0.0020000
        k(    8) = (   0.2474874  -0.2474874   0.2474874), wk =   0.0020000
        k(    9) = (   0.2828427  -0.2828427   0.2828427), wk =   0.0020000
        k(   10) = (   0.3181981  -0.3181981   0.3181981), wk =   0.0020000
        k(   11) = (  -0.3535534   0.3535534  -0.3535534), wk =   0.0010000
        k(   12) = (   0.0000000   0.0000000   0.0707107), wk =   0.0015000
        k(   13) = (   0.0353553  -0.0353553   0.1060660), wk =   0.0060000
        k(   14) = (   0.0707107  -0.0707107   0.1414214), wk =   0.0060000
        k(   15) = (   0.1060660  -0.1060660   0.1767767), wk =   0.0060000
        k(   16) = (   0.1414214  -0.1414214   0.2121320), wk =   0.0060000
        k(   17) = (   0.1767767  -0.1767767   0.2474874), wk =   0.0060000
        k(   18) = (   0.2121320  -0.2121320   0.2828427), wk =   0.0060000
        k(   19) = (   0.2474874  -0.2474874   0.3181981), wk =   0.0060000
        k(   20) = (   0.2828427  -0.2828427   0.3535534), wk =   0.0060000
        k(   21) = (  -0.3889087   0.3889087  -0.3181981), wk =   0.0060000
        k(   22) = (  -0.3535534   0.3535534  -0.2828427), wk =   0.0060000
        k(   23) = (  -0.3181981   0.3181981  -0.2474874), wk =   0.0060000
        k(   24) = (  -0.2828427   0.2828427  -0.2121320), wk =   0.0060000
        k(   25) = (  -0.2474874   0.2474874  -0.1767767), wk =   0.0060000
        k(   26) = (  -0.2121320   0.2121320  -0.1414214), wk =   0.0060000
        k(   27) = (  -0.1767767   0.1767767  -0.1060660), wk =   0.0060000
        k(   28) = (  -0.1414214   0.1414214  -0.0707107), wk =   0.0060000
        k(   29) = (  -0.1060660   0.1060660  -0.0353553), wk =   0.0060000
        k(   30) = (  -0.0707107   0.0707107  -0.0000000), wk =   0.0030000
        k(   31) = (   0.0000000   0.0000000   0.1414214), wk =   0.0015000
        k(   32) = (   0.0353553  -0.0353553   0.1767767), wk =   0.0060000
        k(   33) = (   0.0707107  -0.0707107   0.2121320), wk =   0.0060000
        k(   34) = (   0.1060660  -0.1060660   0.2474874), wk =   0.0060000
        k(   35) = (   0.1414214  -0.1414214   0.2828427), wk =   0.0060000
        k(   36) = (   0.1767767  -0.1767767   0.3181981), wk =   0.0060000
        k(   37) = (   0.2121320  -0.2121320   0.3535534), wk =   0.0060000
        k(   38) = (   0.2474874  -0.2474874   0.3889087), wk =   0.0060000
        k(   39) = (  -0.4242641   0.4242641  -0.2828427), wk =   0.0060000
        k(   40) = (  -0.3889087   0.3889087  -0.2474874), wk =   0.0060000
        k(   41) = (  -0.3535534   0.3535534  -0.2121320), wk =   0.0060000
        k(   42) = (  -0.3181981   0.3181981  -0.1767767), wk =   0.0060000
        k(   43) = (  -0.2828427   0.2828427  -0.1414214), wk =   0.0060000
        k(   44) = (  -0.2474874   0.2474874  -0.1060660), wk =   0.0060000
        k(   45) = (  -0.2121320   0.2121320  -0.0707107), wk =   0.0060000
        k(   46) = (  -0.1767767   0.1767767  -0.0353553), wk =   0.0060000
        k(   47) = (  -0.1414214   0.1414214   0.0000000), wk =   0.0030000
        k(   48) = (   0.0000000   0.0000000   0.2121320), wk =   0.0015000
        k(   49) = (   0.0353553  -0.0353553   0.2474874), wk =   0.0060000
        k(   50) = (   0.0707107  -0.0707107   0.2828427), wk =   0.0060000
        k(   51) = (   0.1060660  -0.1060660   0.3181981), wk =   0.0060000
        k(   52) = (   0.1414214  -0.1414214   0.3535534), wk =   0.0060000
        k(   53) = (   0.1767767  -0.1767767   0.3889087), wk =   0.0060000
        k(   54) = (   0.2121320  -0.2121320   0.4242641), wk =   0.0060000
        k(   55) = (  -0.4596194   0.4596194  -0.2474874), wk =   0.0060000
        k(   56) = (  -0.4242641   0.4242641  -0.2121320), wk =   0.0060000
        k(   57) = (  -0.3889087   0.3889087  -0.1767767), wk =   0.0060000
        k(   58) = (  -0.3535534   0.3535534  -0.1414214), wk =   0.0060000
        k(   59) = (  -0.3181981   0.3181981  -0.1060660), wk =   0.0060000
        k(   60) = (  -0.2828427   0.2828427  -0.0707107), wk =   0.0060000
        k(   61) = (  -0.2474874   0.2474874  -0.0353553), wk =   0.0060000
        k(   62) = (  -0.2121320   0.2121320  -0.0000000), wk =   0.0030000
        k(   63) = (   0.0000000   0.0000000   0.2828427), wk =   0.0015000
        k(   64) = (   0.0353553  -0.0353553   0.3181981), wk =   0.0060000
        k(   65) = (   0.0707107  -0.0707107   0.3535534), wk =   0.0060000
        k(   66) = (   0.1060660  -0.1060660   0.3889087), wk =   0.0060000
        k(   67) = (   0.1414214  -0.1414214   0.4242641), wk =   0.0060000
        k(   68) = (   0.1767767  -0.1767767   0.4596194), wk =   0.0060000
        k(   69) = (  -0.4949747   0.4949747  -0.2121320), wk =   0.0060000
        k(   70) = (  -0.4596194   0.4596194  -0.1767767), wk =   0.0060000
        k(   71) = (  -0.4242641   0.4242641  -0.1414214), wk =   0.0060000
        k(   72) = (  -0.3889087   0.3889087  -0.1060660), wk =   0.0060000
        k(   73) = (  -0.3535534   0.3535534  -0.0707107), wk =   0.0060000
        k(   74) = (  -0.3181981   0.3181981  -0.0353553), wk =   0.0060000
        k(   75) = (  -0.2828427   0.2828427   0.0000000), wk =   0.0030000
        k(   76) = (   0.0000000   0.0000000   0.3535534), wk =   0.0015000
        k(   77) = (   0.0353553  -0.0353553   0.3889087), wk =   0.0060000
        k(   78) = (   0.0707107  -0.0707107   0.4242641), wk =   0.0060000
        k(   79) = (   0.1060660  -0.1060660   0.4596194), wk =   0.0060000
        k(   80) = (   0.1414214  -0.1414214   0.4949747), wk =   0.0060000
        k(   81) = (  -0.5303301   0.5303301  -0.1767767), wk =   0.0060000
        k(   82) = (  -0.4949747   0.4949747  -0.1414214), wk =   0.0060000
        k(   83) = (  -0.4596194   0.4596194  -0.1060660), wk =   0.0060000
        k(   84) = (  -0.4242641   0.4242641  -0.0707107), wk =   0.0060000
        k(   85) = (  -0.3889087   0.3889087  -0.0353553), wk =   0.0060000
        k(   86) = (  -0.3535534   0.3535534   0.0000000), wk =   0.0030000
        k(   87) = (   0.0000000   0.0000000   0.4242641), wk =   0.0015000
        k(   88) = (   0.0353553  -0.0353553   0.4596194), wk =   0.0060000
        k(   89) = (   0.0707107  -0.0707107   0.4949747), wk =   0.0060000
        k(   90) = (   0.1060660  -0.1060660   0.5303301), wk =   0.0060000
        k(   91) = (  -0.5656854   0.5656854  -0.1414214), wk =   0.0060000
        k(   92) = (  -0.5303301   0.5303301  -0.1060660), wk =   0.0060000
        k(   93) = (  -0.4949747   0.4949747  -0.0707107), wk =   0.0060000
        k(   94) = (  -0.4596194   0.4596194  -0.0353553), wk =   0.0060000
        k(   95) = (  -0.4242641   0.4242641  -0.0000000), wk =   0.0030000
        k(   96) = (   0.0000000   0.0000000   0.4949747), wk =   0.0015000
        k(   97) = (   0.0353553  -0.0353553   0.5303301), wk =   0.0060000
        k(   98) = (   0.0707107  -0.0707107   0.5656854), wk =   0.0060000
        k(   99) = (  -0.6010408   0.6010408  -0.1060660), wk =   0.0060000
        k(  100) = (  -0.5656854   0.5656854  -0.0707107), wk =   0.0060000
        k(  101) = (  -0.5303301   0.5303301  -0.0353553), wk =   0.0060000
        k(  102) = (  -0.4949747   0.4949747   0.0000000), wk =   0.0030000
        k(  103) = (   0.0000000   0.0000000   0.5656854), wk =   0.0015000
        k(  104) = (   0.0353553  -0.0353553   0.6010408), wk =   0.0060000
        k(  105) = (  -0.6363961   0.6363961  -0.0707107), wk =   0.0060000
        k(  106) = (  -0.6010408   0.6010408  -0.0353553), wk =   0.0060000
        k(  107) = (  -0.5656854   0.5656854   0.0000000), wk =   0.0030000
        k(  108) = (   0.0000000   0.0000000   0.6363961), wk =   0.0015000
        k(  109) = (  -0.6717514   0.6717514  -0.0353553), wk =   0.0060000
        k(  110) = (  -0.6363961   0.6363961   0.0000000), wk =   0.0030000
        k(  111) = (   0.0000000   0.0000000  -0.7071068), wk =   0.0007500
        k(  112) = (   0.0707107   0.0000000   0.1414214), wk =   0.0060000
        k(  113) = (   0.1060660  -0.0353553   0.1767767), wk =   0.0120000
        k(  114) = (   0.1414214  -0.0707107   0.2121320), wk =   0.0120000
        k(  115) = (   0.1767767  -0.1060660   0.2474874), wk =   0.0120000
        k(  116) = (   0.2121320  -0.1414214   0.2828427), wk =   0.0120000
        k(  117) = (   0.2474874  -0.1767767   0.3181981), wk =   0.0120000
        k(  118) = (   0.2828427  -0.2121320   0.3535534), wk =   0.0120000
        k(  119) = (  -0.3889087   0.4596194  -0.3181981), wk =   0.0120000
        k(  120) = (  -0.3535534   0.4242641  -0.2828427), wk =   0.0060000
        k(  121) = (   0.0707107  -0.0000000   0.2121320), wk =   0.0060000
        k(  122) = (   0.1060660  -0.0353553   0.2474874), wk =   0.0120000
        k(  123) = (   0.1414214  -0.0707107   0.2828427), wk =   0.0120000
        k(  124) = (   0.1767767  -0.1060660   0.3181981), wk =   0.0120000
        k(  125) = (   0.2121320  -0.1414214   0.3535534), wk =   0.0120000
        k(  126) = (   0.2474874  -0.1767767   0.3889087), wk =   0.0120000
        k(  127) = (  -0.4242641   0.4949747  -0.2828427), wk =   0.0120000
        k(  128) = (  -0.3889087   0.4596194  -0.2474874), wk =   0.0120000
        k(  129) = (  -0.3535534   0.4242641  -0.2121320), wk =   0.0120000
        k(  130) = (  -0.3181981   0.3889087  -0.1767767), wk =   0.0120000
        k(  131) = (  -0.2828427   0.3535534  -0.1414214), wk =   0.0120000
        k(  132) = (  -0.2474874   0.3181981  -0.1060660), wk =   0.0120000
        k(  133) = (  -0.2121320   0.2828427  -0.0707107), wk =   0.0120000
        k(  134) = (  -0.1767767   0.2474874  -0.0353553), wk =   0.0120000
        k(  135) = (  -0.1414214   0.2121320   0.0000000), wk =   0.0060000
        k(  136) = (   0.0707107   0.0000000   0.2828427), wk =   0.0060000
        k(  137) = (   0.1060660  -0.0353553   0.3181981), wk =   0.0120000
        k(  138) = (   0.1414214  -0.0707107   0.3535534), wk =   0.0120000
        k(  139) = (   0.1767767  -0.1060660   0.3889087), wk =   0.0120000
        k(  140) = (   0.2121320  -0.1414214   0.4242641), wk =   0.0120000
        k(  141) = (  -0.4596194   0.5303301  -0.2474874), wk =   0.0120000
        k(  142) = (  -0.4242641   0.4949747  -0.2121320), wk =   0.0120000
        k(  143) = (  -0.3889087   0.4596194  -0.1767767), wk =   0.0120000
        k(  144) = (  -0.3535534   0.4242641  -0.1414214), wk =   0.0120000
        k(  145) = (  -0.3181981   0.3889087  -0.1060660), wk =   0.0120000
        k(  146) = (  -0.2828427   0.3535534  -0.0707107), wk =   0.0120000
        k(  147) = (  -0.2474874   0.3181981  -0.0353553), wk =   0.0120000
        k(  148) = (  -0.2121320   0.2828427  -0.0000000), wk =   0.0060000
        k(  149) = (   0.0707107   0.0000000   0.3535534), wk =   0.0060000
        k(  150) = (   0.1060660  -0.0353553   0.3889087), wk =   0.0120000
        k(  151) = (   0.1414214  -0.0707107   0.4242641), wk =   0.0120000
        k(  152) = (   0.1767767  -0.1060660   0.4596194), wk =   0.0120000
        k(  153) = (  -0.4949747   0.5656854  -0.2121320), wk =   0.0120000
        k(  154) = (  -0.4596194   0.5303301  -0.1767767), wk =   0.0120000
        k(  155) = (  -0.4242641   0.4949747  -0.1414214), wk =   0.0120000
        k(  156) = (  -0.3889087   0.4596194  -0.1060660), wk =   0.0120000
        k(  157) = (  -0.3535534   0.4242641  -0.0707107), wk =   0.0120000
        k(  158) = (  -0.3181981   0.3889087  -0.0353553), wk =   0.0120000
        k(  159) = (  -0.2828427   0.3535534   0.0000000), wk =   0.0060000
        k(  160) = (   0.0707107   0.0000000   0.4242641), wk =   0.0060000
        k(  161) = (   0.1060660  -0.0353553   0.4596194), wk =   0.0120000
        k(  162) = (   0.1414214  -0.0707107   0.4949747), wk =   0.0120000
        k(  163) = (  -0.5303301   0.6010408  -0.1767767), wk =   0.0120000
        k(  164) = (  -0.4949747   0.5656854  -0.1414214), wk =   0.0120000
        k(  165) = (  -0.4596194   0.5303301  -0.1060660), wk =   0.0120000
        k(  166) = (  -0.4242641   0.4949747  -0.0707107), wk =   0.0120000
        k(  167) = (  -0.3889087   0.4596194  -0.0353553), wk =   0.0120000
        k(  168) = (  -0.3535534   0.4242641  -0.0000000), wk =   0.0060000
        k(  169) = (   0.0707107  -0.0000000   0.4949747), wk =   0.0060000
        k(  170) = (   0.1060660  -0.0353553   0.5303301), wk =   0.0120000
        k(  171) = (  -0.5656854   0.6363961  -0.1414214), wk =   0.0120000
        k(  172) = (  -0.5303301   0.6010408  -0.1060660), wk =   0.0120000
        k(  173) = (  -0.4949747   0.5656854  -0.0707107), wk =   0.0120000
        k(  174) = (  -0.4596194   0.5303301  -0.0353553), wk =   0.0120000
        k(  175) = (  -0.4242641   0.4949747  -0.0000000), wk =   0.0060000
        k(  176) = (   0.0707107   0.0000000   0.5656854), wk =   0.0060000
        k(  177) = (  -0.6010408   0.6717514  -0.1060660), wk =   0.0120000
        k(  178) = (  -0.5656854   0.6363961  -0.0707107), wk =   0.0120000
        k(  179) = (  -0.5303301   0.6010408  -0.0353553), wk =   0.0120000
        k(  180) = (  -0.4949747   0.5656854   0.0000000), wk =   0.0060000
        k(  181) = (  -0.6363961   0.7071068  -0.0707107), wk =   0.0060000
        k(  182) = (  -0.6010408   0.6717514  -0.0353553), wk =   0.0120000
        k(  183) = (  -0.5656854   0.6363961   0.0000000), wk =   0.0060000
        k(  184) = (   0.0707107  -0.0000000  -0.7071068), wk =   0.0030000
        k(  185) = (   0.1414214   0.0000000   0.2828427), wk =   0.0060000
        k(  186) = (   0.1767767  -0.0353553   0.3181981), wk =   0.0120000
        k(  187) = (   0.2121320  -0.0707107   0.3535534), wk =   0.0120000
        k(  188) = (   0.2474874  -0.1060660   0.3889087), wk =   0.0120000
        k(  189) = (  -0.4242641   0.5656854  -0.2828427), wk =   0.0120000
        k(  190) = (  -0.3889087   0.5303301  -0.2474874), wk =   0.0120000
        k(  191) = (  -0.3535534   0.4949747  -0.2121320), wk =   0.0060000
        k(  192) = (   0.1414214   0.0000000   0.3535534), wk =   0.0060000
        k(  193) = (   0.1767767  -0.0353553   0.3889087), wk =   0.0120000
        k(  194) = (   0.2121320  -0.0707107   0.4242641), wk =   0.0120000
        k(  195) = (  -0.4596194   0.6010408  -0.2474874), wk =   0.0120000
        k(  196) = (  -0.4242641   0.5656854  -0.2121320), wk =   0.0120000
        k(  197) = (  -0.3889087   0.5303301  -0.1767767), wk =   0.0120000
        k(  198) = (  -0.3535534   0.4949747  -0.1414214), wk =   0.0120000
        k(  199) = (  -0.3181981   0.4596194  -0.1060660), wk =   0.0120000
        k(  200) = (  -0.2828427   0.4242641  -0.0707107), wk =   0.0120000
        k(  201) = (  -0.2474874   0.3889087  -0.0353553), wk =   0.0120000
        k(  202) = (  -0.2121320   0.3535534  -0.0000000), wk =   0.0060000
        k(  203) = (   0.1414214  -0.0000000   0.4242641), wk =   0.0060000
        k(  204) = (   0.1767767  -0.0353553   0.4596194), wk =   0.0120000
        k(  205) = (  -0.4949747   0.6363961  -0.2121320), wk =   0.0120000
        k(  206) = (  -0.4596194   0.6010408  -0.1767767), wk =   0.0120000
        k(  207) = (  -0.4242641   0.5656854  -0.1414214), wk =   0.0120000
        k(  208) = (  -0.3889087   0.5303301  -0.1060660), wk =   0.0120000
        k(  209) = (  -0.3535534   0.4949747  -0.0707107), wk =   0.0120000
        k(  210) = (  -0.3181981   0.4596194  -0.0353553), wk =   0.0120000
        k(  211) = (  -0.2828427   0.4242641   0.0000000), wk =   0.0060000
        k(  212) = (   0.1414214   0.0000000   0.4949747), wk =   0.0060000
        k(  213) = (  -0.5303301   0.6717514  -0.1767767), wk =   0.0120000
        k(  214) = (  -0.4949747   0.6363961  -0.1414214), wk =   0.0120000
        k(  215) = (  -0.4596194   0.6010408  -0.1060660), wk =   0.0120000
        k(  216) = (  -0.4242641   0.5656854  -0.0707107), wk =   0.0120000
        k(  217) = (  -0.3889087   0.5303301  -0.0353553), wk =   0.0120000
        k(  218) = (  -0.3535534   0.4949747  -0.0000000), wk =   0.0060000
        k(  219) = (  -0.5656854   0.7071068  -0.1414214), wk =   0.0060000
        k(  220) = (  -0.5303301   0.6717514  -0.1060660), wk =   0.0120000
        k(  221) = (  -0.4949747   0.6363961  -0.0707107), wk =   0.0120000
        k(  222) = (  -0.4596194   0.6010408  -0.0353553), wk =   0.0120000
        k(  223) = (  -0.4242641   0.5656854  -0.0000000), wk =   0.0060000
        k(  224) = (  -0.5656854   0.7071068  -0.0707107), wk =   0.0060000
        k(  225) = (  -0.5303301   0.6717514  -0.0353553), wk =   0.0120000
        k(  226) = (  -0.4949747   0.6363961   0.0000000), wk =   0.0060000
        k(  227) = (   0.1414214   0.0000000  -0.7071068), wk =   0.0030000
        k(  228) = (   0.2121320  -0.0000000   0.4242641), wk =   0.0060000
        k(  229) = (  -0.4596194   0.6717514  -0.2474874), wk =   0.0120000
        k(  230) = (  -0.4242641   0.6363961  -0.2121320), wk =   0.0120000
        k(  231) = (  -0.3889087   0.6010408  -0.1767767), wk =   0.0120000
        k(  232) = (  -0.3535534   0.5656854  -0.1414214), wk =   0.0060000
        k(  233) = (  -0.4949747   0.7071068  -0.2121320), wk =   0.0060000
        k(  234) = (  -0.4596194   0.6717514  -0.1767767), wk =   0.0120000
        k(  235) = (  -0.4242641   0.6363961  -0.1414214), wk =   0.0120000
        k(  236) = (  -0.3889087   0.6010408  -0.1060660), wk =   0.0120000
        k(  237) = (  -0.3535534   0.5656854  -0.0707107), wk =   0.0120000
        k(  238) = (  -0.3181981   0.5303301  -0.0353553), wk =   0.0120000
        k(  239) = (  -0.2828427   0.4949747   0.0000000), wk =   0.0060000
        k(  240) = (  -0.4949747   0.7071068  -0.1414214), wk =   0.0060000
        k(  241) = (  -0.4596194   0.6717514  -0.1060660), wk =   0.0120000
        k(  242) = (  -0.4242641   0.6363961  -0.0707107), wk =   0.0120000
        k(  243) = (  -0.3889087   0.6010408  -0.0353553), wk =   0.0120000
        k(  244) = (  -0.3535534   0.5656854   0.0000000), wk =   0.0060000
        k(  245) = (  -0.4949747   0.7071068  -0.0707107), wk =   0.0060000
        k(  246) = (  -0.4596194   0.6717514  -0.0353553), wk =   0.0120000
        k(  247) = (  -0.4242641   0.6363961  -0.0000000), wk =   0.0060000
        k(  248) = (   0.2121320   0.0000000  -0.7071068), wk =   0.0030000
        k(  249) = (  -0.4242641   0.7071068  -0.1414214), wk =   0.0060000
        k(  250) = (  -0.3889087   0.6717514  -0.1060660), wk =   0.0120000
        k(  251) = (  -0.3535534   0.6363961  -0.0707107), wk =   0.0060000
        k(  252) = (  -0.4242641   0.7071068  -0.0707107), wk =   0.0060000
        k(  253) = (  -0.3889087   0.6717514  -0.0353553), wk =   0.0120000
        k(  254) = (  -0.3535534   0.6363961   0.0000000), wk =   0.0060000
        k(  255) = (   0.2828427   0.0000000  -0.7071068), wk =   0.0030000
        k(  256) = (   0.3535534   0.0000000  -0.7071068), wk =   0.0015000

                       cryst. coord.
        k(    1) = (   0.0000000   0.0000000   0.0000000), wk =   0.0002500
        k(    2) = (   0.0000000   0.0000000   0.0500000), wk =   0.0020000
        k(    3) = (   0.0000000   0.0000000   0.1000000), wk =   0.0020000
        k(    4) = (   0.0000000   0.0000000   0.1500000), wk =   0.0020000
        k(    5) = (   0.0000000   0.0000000   0.2000000), wk =   0.0020000
        k(    6) = (   0.0000000   0.0000000   0.2500000), wk =   0.0020000
        k(    7) = (   0.0000000   0.0000000   0.3000000), wk =   0.0020000
        k(    8) = (   0.0000000   0.0000000   0.3500000), wk =   0.0020000
        k(    9) = (   0.0000000   0.0000000   0.4000000), wk =   0.0020000
        k(   10) = (   0.0000000   0.0000000   0.4500000), wk =   0.0020000
        k(   11) = (   0.0000000   0.0000000  -0.5000000), wk =   0.0010000
        k(   12) = (   0.0000000   0.0500000   0.0500000), wk =   0.0015000
        k(   13) = (   0.0000000   0.0500000   0.1000000), wk =   0.0060000
        k(   14) = (   0.0000000   0.0500000   0.1500000), wk =   0.0060000
        k(   15) = (   0.0000000   0.0500000   0.2000000), wk =   0.0060000
        k(   16) = (   0.0000000   0.0500000   0.2500000), wk =   0.0060000
        k(   17) = (   0.0000000   0.0500000   0.3000000), wk =   0.0060000
        k(   18) = (   0.0000000   0.0500000   0.3500000), wk =   0.0060000
        k(   19) = (   0.0000000   0.0500000   0.4000000), wk =   0.0060000
        k(   20) = (   0.0000000   0.0500000   0.4500000), wk =   0.0060000
        k(   21) = (   0.0000000   0.0500000  -0.5000000), wk =   0.0060000
        k(   22) = (   0.0000000   0.0500000  -0.4500000), wk =   0.0060000
        k(   23) = (   0.0000000   0.0500000  -0.4000000), wk =   0.0060000
        k(   24) = (   0.0000000   0.0500000  -0.3500000), wk =   0.0060000
        k(   25) = (   0.0000000   0.0500000  -0.3000000), wk =   0.0060000
        k(   26) = (   0.0000000   0.0500000  -0.2500000), wk =   0.0060000
        k(   27) = (   0.0000000   0.0500000  -0.2000000), wk =   0.0060000
        k(   28) = (   0.0000000   0.0500000  -0.1500000), wk =   0.0060000
        k(   29) = (   0.0000000   0.0500000  -0.1000000), wk =   0.0060000
        k(   30) = (   0.0000000   0.0500000  -0.0500000), wk =   0.0030000
        k(   31) = (   0.0000000   0.1000000   0.1000000), wk =   0.0015000
        k(   32) = (   0.0000000   0.1000000   0.1500000), wk =   0.0060000
        k(   33) = (   0.0000000   0.1000000   0.2000000), wk =   0.0060000
        k(   34) = (   0.0000000   0.1000000   0.2500000), wk =   0.0060000
        k(   35) = (   0.0000000   0.1000000   0.3000000), wk =   0.0060000
        k(   36) = (   0.0000000   0.1000000   0.3500000), wk =   0.0060000
        k(   37) = (   0.0000000   0.1000000   0.4000000), wk =   0.0060000
        k(   38) = (   0.0000000   0.1000000   0.4500000), wk =   0.0060000
        k(   39) = (   0.0000000   0.1000000  -0.5000000), wk =   0.0060000
        k(   40) = (   0.0000000   0.1000000  -0.4500000), wk =   0.0060000
        k(   41) = (   0.0000000   0.1000000  -0.4000000), wk =   0.0060000
        k(   42) = (   0.0000000   0.1000000  -0.3500000), wk =   0.0060000
        k(   43) = (   0.0000000   0.1000000  -0.3000000), wk =   0.0060000
        k(   44) = (   0.0000000   0.1000000  -0.2500000), wk =   0.0060000
        k(   45) = (   0.0000000   0.1000000  -0.2000000), wk =   0.0060000
        k(   46) = (   0.0000000   0.1000000  -0.1500000), wk =   0.0060000
        k(   47) = (   0.0000000   0.1000000  -0.1000000), wk =   0.0030000
        k(   48) = (   0.0000000   0.1500000   0.1500000), wk =   0.0015000
        k(   49) = (   0.0000000   0.1500000   0.2000000), wk =   0.0060000
        k(   50) = (   0.0000000   0.1500000   0.2500000), wk =   0.0060000
        k(   51) = (   0.0000000   0.1500000   0.3000000), wk =   0.0060000
        k(   52) = (   0.0000000   0.1500000   0.3500000), wk =   0.0060000
        k(   53) = (   0.0000000   0.1500000   0.4000000), wk =   0.0060000
        k(   54) = (   0.0000000   0.1500000   0.4500000), wk =   0.0060000
        k(   55) = (   0.0000000   0.1500000  -0.5000000), wk =   0.0060000
        k(   56) = (   0.0000000   0.1500000  -0.4500000), wk =   0.0060000
        k(   57) = (   0.0000000   0.1500000  -0.4000000), wk =   0.0060000
        k(   58) = (   0.0000000   0.1500000  -0.3500000), wk =   0.0060000
        k(   59) = (   0.0000000   0.1500000  -0.3000000), wk =   0.0060000
        k(   60) = (   0.0000000   0.1500000  -0.2500000), wk =   0.0060000
        k(   61) = (   0.0000000   0.1500000  -0.2000000), wk =   0.0060000
        k(   62) = (   0.0000000   0.1500000  -0.1500000), wk =   0.0030000
        k(   63) = (   0.0000000   0.2000000   0.2000000), wk =   0.0015000
        k(   64) = (   0.0000000   0.2000000   0.2500000), wk =   0.0060000
        k(   65) = (   0.0000000   0.2000000   0.3000000), wk =   0.0060000
        k(   66) = (   0.0000000   0.2000000   0.3500000), wk =   0.0060000
        k(   67) = (   0.0000000   0.2000000   0.4000000), wk =   0.0060000
        k(   68) = (   0.0000000   0.2000000   0.4500000), wk =   0.0060000
        k(   69) = (   0.0000000   0.2000000  -0.5000000), wk =   0.0060000
        k(   70) = (   0.0000000   0.2000000  -0.4500000), wk =   0.0060000
        k(   71) = (   0.0000000   0.2000000  -0.4000000), wk =   0.0060000
        k(   72) = (   0.0000000   0.2000000  -0.3500000), wk =   0.0060000
        k(   73) = (   0.0000000   0.2000000  -0.3000000), wk =   0.0060000
        k(   74) = (   0.0000000   0.2000000  -0.2500000), wk =   0.0060000
        k(   75) = (   0.0000000   0.2000000  -0.2000000), wk =   0.0030000
        k(   76) = (   0.0000000   0.2500000   0.2500000), wk =   0.0015000
        k(   77) = (   0.0000000   0.2500000   0.3000000), wk =   0.0060000
        k(   78) = (   0.0000000   0.2500000   0.3500000), wk =   0.0060000
        k(   79) = (   0.0000000   0.2500000   0.4000000), wk =   0.0060000
        k(   80) = (   0.0000000   0.2500000   0.4500000), wk =   0.0060000
        k(   81) = (   0.0000000   0.2500000  -0.5000000), wk =   0.0060000
        k(   82) = (   0.0000000   0.2500000  -0.4500000), wk =   0.0060000
        k(   83) = (   0.0000000   0.2500000  -0.4000000), wk =   0.0060000
        k(   84) = (   0.0000000   0.2500000  -0.3500000), wk =   0.0060000
        k(   85) = (   0.0000000   0.2500000  -0.3000000), wk =   0.0060000
        k(   86) = (   0.0000000   0.2500000  -0.2500000), wk =   0.0030000
        k(   87) = (   0.0000000   0.3000000   0.3000000), wk =   0.0015000
        k(   88) = (   0.0000000   0.3000000   0.3500000), wk =   0.0060000
        k(   89) = (   0.0000000   0.3000000   0.4000000), wk =   0.0060000
        k(   90) = (   0.0000000   0.3000000   0.4500000), wk =   0.0060000
        k(   91) = (   0.0000000   0.3000000  -0.5000000), wk =   0.0060000
        k(   92) = (   0.0000000   0.3000000  -0.4500000), wk =   0.0060000
        k(   93) = (   0.0000000   0.3000000  -0.4000000), wk =   0.0060000
        k(   94) = (   0.0000000   0.3000000  -0.3500000), wk =   0.0060000
        k(   95) = (   0.0000000   0.3000000  -0.3000000), wk =   0.0030000
        k(   96) = (   0.0000000   0.3500000   0.3500000), wk =   0.0015000
        k(   97) = (   0.0000000   0.3500000   0.4000000), wk =   0.0060000
        k(   98) = (   0.0000000   0.3500000   0.4500000), wk =   0.0060000
        k(   99) = (   0.0000000   0.3500000  -0.5000000), wk =   0.0060000
        k(  100) = (   0.0000000   0.3500000  -0.4500000), wk =   0.0060000
        k(  101) = (   0.0000000   0.3500000  -0.4000000), wk =   0.0060000
        k(  102) = (   0.0000000   0.3500000  -0.3500000), wk =   0.0030000
        k(  103) = (   0.0000000   0.4000000   0.4000000), wk =   0.0015000
        k(  104) = (   0.0000000   0.4000000   0.4500000), wk =   0.0060000
        k(  105) = (   0.0000000   0.4000000  -0.5000000), wk =   0.0060000
        k(  106) = (   0.0000000   0.4000000  -0.4500000), wk =   0.0060000
        k(  107) = (   0.0000000   0.4000000  -0.4000000), wk =   0.0030000
        k(  108) = (   0.0000000   0.4500000   0.4500000), wk =   0.0015000
        k(  109) = (   0.0000000   0.4500000  -0.5000000), wk =   0.0060000
        k(  110) = (   0.0000000   0.4500000  -0.4500000), wk =   0.0030000
        k(  111) = (   0.0000000  -0.5000000  -0.5000000), wk =   0.0007500
        k(  112) = (   0.0500000   0.1000000   0.1500000), wk =   0.0060000
        k(  113) = (   0.0500000   0.1000000   0.2000000), wk =   0.0120000
        k(  114) = (   0.0500000   0.1000000   0.2500000), wk =   0.0120000
        k(  115) = (   0.0500000   0.1000000   0.3000000), wk =   0.0120000
        k(  116) = (   0.0500000   0.1000000   0.3500000), wk =   0.0120000
        k(  117) = (   0.0500000   0.1000000   0.4000000), wk =   0.0120000
        k(  118) = (   0.0500000   0.1000000   0.4500000), wk =   0.0120000
        k(  119) = (   0.0500000   0.1000000  -0.5000000), wk =   0.0120000
        k(  120) = (   0.0500000   0.1000000  -0.4500000), wk =   0.0060000
        k(  121) = (   0.0500000   0.1500000   0.2000000), wk =   0.0060000
        k(  122) = (   0.0500000   0.1500000   0.2500000), wk =   0.0120000
        k(  123) = (   0.0500000   0.1500000   0.3000000), wk =   0.0120000
        k(  124) = (   0.0500000   0.1500000   0.3500000), wk =   0.0120000
        k(  125) = (   0.0500000   0.1500000   0.4000000), wk =   0.0120000
        k(  126) = (   0.0500000   0.1500000   0.4500000), wk =   0.0120000
        k(  127) = (   0.0500000   0.1500000  -0.5000000), wk =   0.0120000
        k(  128) = (   0.0500000   0.1500000  -0.4500000), wk =   0.0120000
        k(  129) = (   0.0500000   0.1500000  -0.4000000), wk =   0.0120000
        k(  130) = (   0.0500000   0.1500000  -0.3500000), wk =   0.0120000
        k(  131) = (   0.0500000   0.1500000  -0.3000000), wk =   0.0120000
        k(  132) = (   0.0500000   0.1500000  -0.2500000), wk =   0.0120000
        k(  133) = (   0.0500000   0.1500000  -0.2000000), wk =   0.0120000
        k(  134) = (   0.0500000   0.1500000  -0.1500000), wk =   0.0120000
        k(  135) = (   0.0500000   0.1500000  -0.1000000), wk =   0.0060000
        k(  136) = (   0.0500000   0.2000000   0.2500000), wk =   0.0060000
        k(  137) = (   0.0500000   0.2000000   0.3000000), wk =   0.0120000
        k(  138) = (   0.0500000   0.2000000   0.3500000), wk =   0.0120000
        k(  139) = (   0.0500000   0.2000000   0.4000000), wk =   0.0120000
        k(  140) = (   0.0500000   0.2000000   0.4500000), wk =   0.0120000
        k(  141) = (   0.0500000   0.2000000  -0.5000000), wk =   0.0120000
        k(  142) = (   0.0500000   0.2000000  -0.4500000), wk =   0.0120000
        k(  143) = (   0.0500000   0.2000000  -0.4000000), wk =   0.0120000
        k(  144) = (   0.0500000   0.2000000  -0.3500000), wk =   0.0120000
        k(  145) = (   0.0500000   0.2000000  -0.3000000), wk =   0.0120000
        k(  146) = (   0.0500000   0.2000000  -0.2500000), wk =   0.0120000
        k(  147) = (   0.0500000   0.2000000  -0.2000000), wk =   0.0120000
        k(  148) = (   0.0500000   0.2000000  -0.1500000), wk =   0.0060000
        k(  149) = (   0.0500000   0.2500000   0.3000000), wk =   0.0060000
        k(  150) = (   0.0500000   0.2500000   0.3500000), wk =   0.0120000
        k(  151) = (   0.0500000   0.2500000   0.4000000), wk =   0.0120000
        k(  152) = (   0.0500000   0.2500000   0.4500000), wk =   0.0120000
        k(  153) = (   0.0500000   0.2500000  -0.5000000), wk =   0.0120000
        k(  154) = (   0.0500000   0.2500000  -0.4500000), wk =   0.0120000
        k(  155) = (   0.0500000   0.2500000  -0.4000000), wk =   0.0120000
        k(  156) = (   0.0500000   0.2500000  -0.3500000), wk =   0.0120000
        k(  157) = (   0.0500000   0.2500000  -0.3000000), wk =   0.0120000
        k(  158) = (   0.0500000   0.2500000  -0.2500000), wk =   0.0120000
        k(  159) = (   0.0500000   0.2500000  -0.2000000), wk =   0.0060000
        k(  160) = (   0.0500000   0.3000000   0.3500000), wk =   0.0060000
        k(  161) = (   0.0500000   0.3000000   0.4000000), wk =   0.0120000
        k(  162) = (   0.0500000   0.3000000   0.4500000), wk =   0.0120000
        k(  163) = (   0.0500000   0.3000000  -0.5000000), wk =   0.0120000
        k(  164) = (   0.0500000   0.3000000  -0.4500000), wk =   0.0120000
        k(  165) = (   0.0500000   0.3000000  -0.4000000), wk =   0.0120000
        k(  166) = (   0.0500000   0.3000000  -0.3500000), wk =   0.0120000
        k(  167) = (   0.0500000   0.3000000  -0.3000000), wk =   0.0120000
        k(  168) = (   0.0500000   0.3000000  -0.2500000), wk =   0.0060000
        k(  169) = (   0.0500000   0.3500000   0.4000000), wk =   0.0060000
        k(  170) = (   0.0500000   0.3500000   0.4500000), wk =   0.0120000
        k(  171) = (   0.0500000   0.3500000  -0.5000000), wk =   0.0120000
        k(  172) = (   0.0500000   0.3500000  -0.4500000), wk =   0.0120000
        k(  173) = (   0.0500000   0.3500000  -0.4000000), wk =   0.0120000
        k(  174) = (   0.0500000   0.3500000  -0.3500000), wk =   0.0120000
        k(  175) = (   0.0500000   0.3500000  -0.3000000), wk =   0.0060000
        k(  176) = (   0.0500000   0.4000000   0.4500000), wk =   0.0060000
        k(  177) = (   0.0500000   0.4000000  -0.5000000), wk =   0.0120000
        k(  178) = (   0.0500000   0.4000000  -0.4500000), wk =   0.0120000
        k(  179) = (   0.0500000   0.4000000  -0.4000000), wk =   0.0120000
        k(  180) = (   0.0500000   0.4000000  -0.3500000), wk =   0.0060000
        k(  181) = (   0.0500000   0.4500000  -0.5000000), wk =   0.0060000
        k(  182) = (   0.0500000   0.4500000  -0.4500000), wk =   0.0120000
        k(  183) = (   0.0500000   0.4500000  -0.4000000), wk =   0.0060000
        k(  184) = (   0.0500000  -0.5000000  -0.4500000), wk =   0.0030000
        k(  185) = (   0.1000000   0.2000000   0.3000000), wk =   0.0060000
        k(  186) = (   0.1000000   0.2000000   0.3500000), wk =   0.0120000
        k(  187) = (   0.1000000   0.2000000   0.4000000), wk =   0.0120000
        k(  188) = (   0.1000000   0.2000000   0.4500000), wk =   0.0120000
        k(  189) = (   0.1000000   0.2000000  -0.5000000), wk =   0.0120000
        k(  190) = (   0.1000000   0.2000000  -0.4500000), wk =   0.0120000
        k(  191) = (   0.1000000   0.2000000  -0.4000000), wk =   0.0060000
        k(  192) = (   0.1000000   0.2500000   0.3500000), wk =   0.0060000
        k(  193) = (   0.1000000   0.2500000   0.4000000), wk =   0.0120000
        k(  194) = (   0.1000000   0.2500000   0.4500000), wk =   0.0120000
        k(  195) = (   0.1000000   0.2500000  -0.5000000), wk =   0.0120000
        k(  196) = (   0.1000000   0.2500000  -0.4500000), wk =   0.0120000
        k(  197) = (   0.1000000   0.2500000  -0.4000000), wk =   0.0120000
        k(  198) = (   0.1000000   0.2500000  -0.3500000), wk =   0.0120000
        k(  199) = (   0.1000000   0.2500000  -0.3000000), wk =   0.0120000
        k(  200) = (   0.1000000   0.2500000  -0.2500000), wk =   0.0120000
        k(  201) = (   0.1000000   0.2500000  -0.2000000), wk =   0.0120000
        k(  202) = (   0.1000000   0.2500000  -0.1500000), wk =   0.0060000
        k(  203) = (   0.1000000   0.3000000   0.4000000), wk =   0.0060000
        k(  204) = (   0.1000000   0.3000000   0.4500000), wk =   0.0120000
        k(  205) = (   0.1000000   0.3000000  -0.5000000), wk =   0.0120000
        k(  206) = (   0.1000000   0.3000000  -0.4500000), wk =   0.0120000
        k(  207) = (   0.1000000   0.3000000  -0.4000000), wk =   0.0120000
        k(  208) = (   0.1000000   0.3000000  -0.3500000), wk =   0.0120000
        k(  209) = (   0.1000000   0.3000000  -0.3000000), wk =   0.0120000
        k(  210) = (   0.1000000   0.3000000  -0.2500000), wk =   0.0120000
        k(  211) = (   0.1000000   0.3000000  -0.2000000), wk =   0.0060000
        k(  212) = (   0.1000000   0.3500000   0.4500000), wk =   0.0060000
        k(  213) = (   0.1000000   0.3500000  -0.5000000), wk =   0.0120000
        k(  214) = (   0.1000000   0.3500000  -0.4500000), wk =   0.0120000
        k(  215) = (   0.1000000   0.3500000  -0.4000000), wk =   0.0120000
        k(  216) = (   0.1000000   0.3500000  -0.3500000), wk =   0.0120000
        k(  217) = (   0.1000000   0.3500000  -0.3000000), wk =   0.0120000
        k(  218) = (   0.1000000   0.3500000  -0.2500000), wk =   0.0060000
        k(  219) = (   0.1000000   0.4000000  -0.5000000), wk =   0.0060000
        k(  220) = (   0.1000000   0.4000000  -0.4500000), wk =   0.0120000
        k(  221) = (   0.1000000   0.4000000  -0.4000000), wk =   0.0120000
        k(  222) = (   0.1000000   0.4000000  -0.3500000), wk =   0.0120000
        k(  223) = (   0.1000000   0.4000000  -0.3000000), wk =   0.0060000
        k(  224) = (   0.1000000   0.4500000  -0.4500000), wk =   0.0060000
        k(  225) = (   0.1000000   0.4500000  -0.4000000), wk =   0.0120000
        k(  226) = (   0.1000000   0.4500000  -0.3500000), wk =   0.0060000
        k(  227) = (   0.1000000  -0.5000000  -0.4000000), wk =   0.0030000
        k(  228) = (   0.1500000   0.3000000   0.4500000), wk =   0.0060000
        k(  229) = (   0.1500000   0.3000000  -0.5000000), wk =   0.0120000
        k(  230) = (   0.1500000   0.3000000  -0.4500000), wk =   0.0120000
        k(  231) = (   0.1500000   0.3000000  -0.4000000), wk =   0.0120000
        k(  232) = (   0.1500000   0.3000000  -0.3500000), wk =   0.0060000
        k(  233) = (   0.1500000   0.3500000  -0.5000000), wk =   0.0060000
        k(  234) = (   0.1500000   0.3500000  -0.4500000), wk =   0.0120000
        k(  235) = (   0.1500000   0.3500000  -0.4000000), wk =   0.0120000
        k(  236) = (   0.1500000   0.3500000  -0.3500000), wk =   0.0120000
        k(  237) = (   0.1500000   0.3500000  -0.3000000), wk =   0.0120000
        k(  238) = (   0.1500000   0.3500000  -0.2500000), wk =   0.0120000
        k(  239) = (   0.1500000   0.3500000  -0.2000000), wk =   0.0060000
        k(  240) = (   0.1500000   0.4000000  -0.4500000), wk =   0.0060000
        k(  241) = (   0.1500000   0.4000000  -0.4000000), wk =   0.0120000
        k(  242) = (   0.1500000   0.4000000  -0.3500000), wk =   0.0120000
        k(  243) = (   0.1500000   0.4000000  -0.3000000), wk =   0.0120000
        k(  244) = (   0.1500000   0.4000000  -0.2500000), wk =   0.0060000
        k(  245) = (   0.1500000   0.4500000  -0.4000000), wk =   0.0060000
        k(  246) = (   0.1500000   0.4500000  -0.3500000), wk =   0.0120000
        k(  247) = (   0.1500000   0.4500000  -0.3000000), wk =   0.0060000
        k(  248) = (   0.1500000  -0.5000000  -0.3500000), wk =   0.0030000
        k(  249) = (   0.2000000   0.4000000  -0.4000000), wk =   0.0060000
        k(  250) = (   0.2000000   0.4000000  -0.3500000), wk =   0.0120000
        k(  251) = (   0.2000000   0.4000000  -0.3000000), wk =   0.0060000
        k(  252) = (   0.2000000   0.4500000  -0.3500000), wk =   0.0060000
        k(  253) = (   0.2000000   0.4500000  -0.3000000), wk =   0.0120000
        k(  254) = (   0.2000000   0.4500000  -0.2500000), wk =   0.0060000
        k(  255) = (   0.2000000  -0.5000000  -0.3000000), wk =   0.0030000
        k(  256) = (   0.2500000  -0.5000000  -0.2500000), wk =   0.0015000

     Dense  grid:    75745 G-vectors     FFT dimensions: (  60,  60,  60)

     Smooth grid:    26813 G-vectors     FFT dimensions: (  48,  48,  48)

     Dynamical RAM for                 wfc:       0.13 MB

     Dynamical RAM for     wfc (w. buffer):       0.13 MB

     Dynamical RAM for           str. fact:       0.07 MB

     Dynamical RAM for           local pot:       0.00 MB

     Dynamical RAM for          nlocal pot:       0.05 MB

     Dynamical RAM for                qrad:       0.58 MB

     Dynamical RAM for          rho,v,vnew:       0.55 MB

     Dynamical RAM for           G-vectors:       0.28 MB

     Dynamical RAM for          h,s,v(r/c):       0.29 MB

     Dynamical RAM for          <psi|beta>:       0.01 MB

     Dynamical RAM for                 psi:       0.26 MB

     Dynamical RAM for                hpsi:       0.26 MB

     Dynamical RAM for      wfcinit/wfcrot:       0.29 MB

     Estimated static dynamical RAM per process >       2.35 MB

     Estimated max dynamical RAM per process >       3.17 MB

     Estimated total dynamical RAM >      50.68 MB

     Atomic positions and unit cell read from directory:
     ./wavefunc/Si.save/
 

     The potential is recalculated from file :
     ./wavefunc/Si.save/charge-density

     Starting wfcs are random

     Band Structure Calculation
     Davidson diagonalization with overlap

     Computing kpt #:     1  of   256
     total cpu time spent up to now is        0.3 secs

     Computing kpt #:     2  of   256
     total cpu time spent up to now is        0.5 secs

     Computing kpt #:     3  of   256
     total cpu time spent up to now is        0.7 secs

     Computing kpt #:     4  of   256
     total cpu time spent up to now is        0.9 secs

     Computing kpt #:     5  of   256
     total cpu time spent up to now is        1.1 secs

     Computing kpt #:     6  of   256
     total cpu time spent up to now is        1.3 secs

     Computing kpt #:     7  of   256
     total cpu time spent up to now is        1.4 secs

     Computing kpt #:     8  of   256
     total cpu time spent up to now is        1.6 secs

     Computing kpt #:     9  of   256
     total cpu time spent up to now is        1.8 secs

     Computing kpt #:    10  of   256
     total cpu time spent up to now is        1.9 secs

     Computing kpt #:    11  of   256
     total cpu time spent up to now is        2.1 secs

     Computing kpt #:    12  of   256
     total cpu time spent up to now is        2.3 secs

     Computing kpt #:    13  of   256
     total cpu time spent up to now is        2.5 secs

     Computing kpt #:    14  of   256
     total cpu time spent up to now is        2.7 secs

     Computing kpt #:    15  of   256
     total cpu time spent up to now is        2.9 secs

     Computing kpt #:    16  of   256
     total cpu time spent up to now is        3.1 secs

     Computing kpt #:    17  of   256
     total cpu time spent up to now is        3.3 secs

     Computing kpt #:    18  of   256
     total cpu time spent up to now is        3.5 secs

     Computing kpt #:    19  of   256
     total cpu time spent up to now is        3.7 secs

     Computing kpt #:    20  of   256
     total cpu time spent up to now is        3.8 secs

     Computing kpt #:    21  of   256
     total cpu time spent up to now is        4.0 secs

     Computing kpt #:    22  of   256
     total cpu time spent up to now is        4.2 secs

     Computing kpt #:    23  of   256
     total cpu time spent up to now is        4.4 secs

     Computing kpt #:    24  of   256
     total cpu time spent up to now is        4.6 secs

     Computing kpt #:    25  of   256
     total cpu time spent up to now is        4.7 secs

     Computing kpt #:    26  of   256
     total cpu time spent up to now is        5.0 secs

     Computing kpt #:    27  of   256
     total cpu time spent up to now is        5.2 secs

     Computing kpt #:    28  of   256
     total cpu time spent up to now is        5.4 secs

     Computing kpt #:    29  of   256
     total cpu time spent up to now is        5.6 secs

     Computing kpt #:    30  of   256
     total cpu time spent up to now is        5.9 secs

     Computing kpt #:    31  of   256
     total cpu time spent up to now is        6.0 secs

     Computing kpt #:    32  of   256
     total cpu time spent up to now is        6.2 secs

     Computing kpt #:    33  of   256
     total cpu time spent up to now is        6.4 secs

     Computing kpt #:    34  of   256
     total cpu time spent up to now is        6.6 secs

     Computing kpt #:    35  of   256
     total cpu time spent up to now is        6.8 secs

     Computing kpt #:    36  of   256
     total cpu time spent up to now is        7.0 secs

     Computing kpt #:    37  of   256
     total cpu time spent up to now is        7.1 secs

     Computing kpt #:    38  of   256
     total cpu time spent up to now is        7.3 secs

     Computing kpt #:    39  of   256
     total cpu time spent up to now is        7.5 secs

     Computing kpt #:    40  of   256
     total cpu time spent up to now is        7.7 secs

     Computing kpt #:    41  of   256
     total cpu time spent up to now is        7.9 secs

     Computing kpt #:    42  of   256
     total cpu time spent up to now is        8.1 secs

     Computing kpt #:    43  of   256
     total cpu time spent up to now is        8.3 secs

     Computing kpt #:    44  of   256
     total cpu time spent up to now is        8.4 secs

     Computing kpt #:    45  of   256
     total cpu time spent up to now is        8.6 secs

     Computing kpt #:    46  of   256
     total cpu time spent up to now is        8.8 secs

     Computing kpt #:    47  of   256
     total cpu time spent up to now is        9.0 secs

     Computing kpt #:    48  of   256
     total cpu time spent up to now is        9.2 secs

     Computing kpt #:    49  of   256
     total cpu time spent up to now is        9.4 secs

     Computing kpt #:    50  of   256
     total cpu time spent up to now is        9.6 secs

     Computing kpt #:    51  of   256
     total cpu time spent up to now is        9.7 secs

     Computing kpt #:    52  of   256
     total cpu time spent up to now is       10.0 secs

     Computing kpt #:    53  of   256
     total cpu time spent up to now is       10.1 secs

     Computing kpt #:    54  of   256
     total cpu time spent up to now is       10.3 secs

     Computing kpt #:    55  of   256
     total cpu time spent up to now is       10.5 secs

     Computing kpt #:    56  of   256
     total cpu time spent up to now is       10.7 secs

     Computing kpt #:    57  of   256
     total cpu time spent up to now is       10.9 secs

     Computing kpt #:    58  of   256
     total cpu time spent up to now is       11.1 secs

     Computing kpt #:    59  of   256
     total cpu time spent up to now is       11.2 secs

     Computing kpt #:    60  of   256
     total cpu time spent up to now is       11.4 secs

     Computing kpt #:    61  of   256
     total cpu time spent up to now is       11.6 secs

     Computing kpt #:    62  of   256
     total cpu time spent up to now is       11.8 secs

     Computing kpt #:    63  of   256
     total cpu time spent up to now is       12.0 secs

     Computing kpt #:    64  of   256
     total cpu time spent up to now is       12.1 secs

     Computing kpt #:    65  of   256
     total cpu time spent up to now is       12.3 secs

     Computing kpt #:    66  of   256
     total cpu time spent up to now is       12.5 secs

     Computing kpt #:    67  of   256
     total cpu time spent up to now is       12.7 secs

     Computing kpt #:    68  of   256
     total cpu time spent up to now is       12.9 secs

     Computing kpt #:    69  of   256
     total cpu time spent up to now is       13.1 secs

     Computing kpt #:    70  of   256
     total cpu time spent up to now is       13.2 secs

     Computing kpt #:    71  of   256
     total cpu time spent up to now is       13.4 secs

     Computing kpt #:    72  of   256
     total cpu time spent up to now is       13.5 secs

     Computing kpt #:    73  of   256
     total cpu time spent up to now is       13.7 secs

     Computing kpt #:    74  of   256
     total cpu time spent up to now is       13.9 secs

     Computing kpt #:    75  of   256
     total cpu time spent up to now is       14.1 secs

     Computing kpt #:    76  of   256
     total cpu time spent up to now is       14.3 secs

     Computing kpt #:    77  of   256
     total cpu time spent up to now is       14.4 secs

     Computing kpt #:    78  of   256
     total cpu time spent up to now is       14.6 secs

     Computing kpt #:    79  of   256
     total cpu time spent up to now is       14.8 secs

     Computing kpt #:    80  of   256
     total cpu time spent up to now is       15.0 secs

     Computing kpt #:    81  of   256
     total cpu time spent up to now is       15.2 secs

     Computing kpt #:    82  of   256
     total cpu time spent up to now is       15.3 secs

     Computing kpt #:    83  of   256
     total cpu time spent up to now is       15.5 secs

     Computing kpt #:    84  of   256
     total cpu time spent up to now is       15.7 secs

     Computing kpt #:    85  of   256
     total cpu time spent up to now is       15.8 secs

     Computing kpt #:    86  of   256
     total cpu time spent up to now is       16.0 secs

     Computing kpt #:    87  of   256
     total cpu time spent up to now is       16.2 secs

     Computing kpt #:    88  of   256
     total cpu time spent up to now is       16.4 secs

     Computing kpt #:    89  of   256
     total cpu time spent up to now is       16.5 secs

     Computing kpt #:    90  of   256
     total cpu time spent up to now is       16.7 secs

     Computing kpt #:    91  of   256
     total cpu time spent up to now is       16.9 secs

     Computing kpt #:    92  of   256
     total cpu time spent up to now is       17.1 secs

     Computing kpt #:    93  of   256
     total cpu time spent up to now is       17.3 secs

     Computing kpt #:    94  of   256
     total cpu time spent up to now is       17.5 secs

     Computing kpt #:    95  of   256
     total cpu time spent up to now is       17.6 secs

     Computing kpt #:    96  of   256
     total cpu time spent up to now is       17.8 secs

     Computing kpt #:    97  of   256
     total cpu time spent up to now is       18.0 secs

     Computing kpt #:    98  of   256
     total cpu time spent up to now is       18.2 secs

     Computing kpt #:    99  of   256
     total cpu time spent up to now is       18.3 secs

     Computing kpt #:   100  of   256
     total cpu time spent up to now is       18.5 secs

     Computing kpt #:   101  of   256
     total cpu time spent up to now is       18.7 secs

     Computing kpt #:   102  of   256
     total cpu time spent up to now is       18.9 secs

     Computing kpt #:   103  of   256
     total cpu time spent up to now is       19.0 secs

     Computing kpt #:   104  of   256
     total cpu time spent up to now is       19.2 secs

     Computing kpt #:   105  of   256
     total cpu time spent up to now is       19.3 secs

     Computing kpt #:   106  of   256
     total cpu time spent up to now is       19.5 secs

     Computing kpt #:   107  of   256
     total cpu time spent up to now is       19.7 secs

     Computing kpt #:   108  of   256
     total cpu time spent up to now is       19.8 secs

     Computing kpt #:   109  of   256
     total cpu time spent up to now is       20.0 secs

     Computing kpt #:   110  of   256
     total cpu time spent up to now is       20.1 secs

     Computing kpt #:   111  of   256
     total cpu time spent up to now is       20.3 secs

     Computing kpt #:   112  of   256
     total cpu time spent up to now is       20.5 secs

     Computing kpt #:   113  of   256
     total cpu time spent up to now is       20.7 secs

     Computing kpt #:   114  of   256
     total cpu time spent up to now is       20.9 secs

     Computing kpt #:   115  of   256
     total cpu time spent up to now is       21.0 secs

     Computing kpt #:   116  of   256
     total cpu time spent up to now is       21.2 secs

     Computing kpt #:   117  of   256
     total cpu time spent up to now is       21.4 secs

     Computing kpt #:   118  of   256
[...]
    24.1622  25.4352  26.7599  27.1048  28.3531  30.6073  31.0626  32.2813
    33.8702  34.5247  35.7588  36.3828  36.8183  37.7377  39.4989  41.7168
    43.0861  44.8014  45.2692  45.9645  47.6751  48.0358  48.8579  49.9715

     occupation numbers 
     1.0000   1.0000   1.0000   1.0000   0.0000   0.0000   0.0000   0.0000
     0.0000   0.0000   0.0000   0.0000   0.0000   0.0000   0.0000   0.0000
     0.0000   0.0000   0.0000   0.0000   0.0000   0.0000   0.0000   0.0000
     0.0000   0.0000   0.0000   0.0000   0.0000   0.0000   0.0000   0.0000
     0.0000   0.0000   0.0000   0.0000   0.0000   0.0000   0.0000   0.0000

          k =-0.3536 0.5657-0.0707 (  3344 PWs)   bands (ev):

    -2.6193  -0.7717   1.9593   3.2467   9.1000   9.8626  11.5665  12.4553
    13.6576  16.1624  18.4786  19.5977  21.4694  22.2124  22.6348  23.5352
    24.6462  25.8265  26.1607  27.4310  28.4651  30.6252  31.3002  32.1665
    33.6755  34.7878  35.7366  35.8877  36.8879  37.8234  39.6893  41.8543
    43.0686  44.7247  44.9245  45.8582  47.7550  48.2045  49.1638  49.4104

     occupation numbers 
     1.0000   1.0000   1.0000   1.0000   0.0000   0.0000   0.0000   0.0000
     0.0000   0.0000   0.0000   0.0000   0.0000   0.0000   0.0000   0.0000
     0.0000   0.0000   0.0000   0.0000   0.0000   0.0000   0.0000   0.0000
     0.0000   0.0000   0.0000   0.0000   0.0000   0.0000   0.0000   0.0000
     0.0000   0.0000   0.0000   0.0000   0.0000   0.0000   0.0000   0.0000

          k =-0.3182 0.5303-0.0354 (  3336 PWs)   bands (ev):

    -2.9095  -0.4422   2.0072   3.3987   9.3049   9.7160  10.7420  13.4500
    13.5650  15.3893  19.1652  19.7927  20.6805  21.2167  22.4269  24.1969
    24.6761  26.0635  26.3681  27.8244  28.8232  29.5157  31.6602  33.0692
    34.0334  34.4796  35.5769  35.8702  37.0323  38.0684  39.8317  42.2758
    42.8747  44.2010  44.9137  45.6879  47.6701  48.2621  48.8445  49.7455

     occupation numbers 
     1.0000   1.0000   1.0000   1.0000   0.0000   0.0000   0.0000   0.0000
     0.0000   0.0000   0.0000   0.0000   0.0000   0.0000   0.0000   0.0000
     0.0000   0.0000   0.0000   0.0000   0.0000   0.0000   0.0000   0.0000
     0.0000   0.0000   0.0000   0.0000   0.0000   0.0000   0.0000   0.0000
     0.0000   0.0000   0.0000   0.0000   0.0000   0.0000   0.0000   0.0000

          k =-0.2828 0.4950 0.0000 (  3357 PWs)   bands (ev):

    -3.2719  -0.0347   2.1790   3.6121   9.4122   9.5447  10.1926  13.1753
    14.5852  14.8659  19.2763  19.7844  19.9036  20.5110  22.5072  23.8364
    24.8340  26.3276  27.3448  27.5100  29.1998  29.4247  32.3424  33.1108
    33.2800  35.5142  35.8798  36.1976  37.1189  38.4466  39.4815  42.4520
    43.0664  43.8646  44.7425  45.5040  47.4194  48.0170  48.5531  49.4751

     occupation numbers 
     1.0000   1.0000   1.0000   1.0000   0.0000   0.0000   0.0000   0.0000
     0.0000   0.0000   0.0000   0.0000   0.0000   0.0000   0.0000   0.0000
     0.0000   0.0000   0.0000   0.0000   0.0000   0.0000   0.0000   0.0000
     0.0000   0.0000   0.0000   0.0000   0.0000   0.0000   0.0000   0.0000
     0.0000   0.0000   0.0000   0.0000   0.0000   0.0000   0.0000   0.0000

          k =-0.4950 0.7071-0.1414 (  3354 PWs)   bands (ev):

    -2.9264  -0.3788   2.4343   3.0549   8.3126   8.8267  11.3866  14.2634
    14.9076  16.2708  18.6747  19.7972  20.0021  20.6282  22.3561  23.2875
    25.4805  26.0130  26.6889  27.0253  28.4070  28.9877  31.1996  32.8216
    34.4298  34.6876  37.0626  37.1136  37.2499  38.0208  39.3855  42.7342
    43.2725  44.3782  45.3308  45.9885  46.9678  47.5563  48.2709  48.3919

     occupation numbers 
     1.0000   1.0000   1.0000   1.0000   0.0000   0.0000   0.0000   0.0000
     0.0000   0.0000   0.0000   0.0000   0.0000   0.0000   0.0000   0.0000
     0.0000   0.0000   0.0000   0.0000   0.0000   0.0000   0.0000   0.0000
     0.0000   0.0000   0.0000   0.0000   0.0000   0.0000   0.0000   0.0000
     0.0000   0.0000   0.0000   0.0000   0.0000   0.0000   0.0000   0.0000

          k =-0.4596 0.6718-0.1061 (  3342 PWs)   bands (ev):

    -2.5615  -0.7582   2.2019   2.8982   8.5669   9.3848  11.1789  13.7613
    14.6285  16.7380  18.1772  20.0528  20.7052  21.1484  22.6172  23.8426
    24.8573  25.7969  26.4513  26.8472  28.5120  28.9025  30.7067  32.8056
    34.1726  35.4339  35.7780  36.6489  36.9657  37.8578  40.0372  42.2076
    43.2787  44.6856  45.0406  46.1259  47.3111  47.8215  47.9841  49.2470

     occupation numbers 
     1.0000   1.0000   1.0000   1.0000   0.0000   0.0000   0.0000   0.0000
     0.0000   0.0000   0.0000   0.0000   0.0000   0.0000   0.0000   0.0000
     0.0000   0.0000   0.0000   0.0000   0.0000   0.0000   0.0000   0.0000
     0.0000   0.0000   0.0000   0.0000   0.0000   0.0000   0.0000   0.0000
     0.0000   0.0000   0.0000   0.0000   0.0000   0.0000   0.0000   0.0000

          k =-0.4243 0.6364-0.0707 (  3340 PWs)   bands (ev):

    -2.2826  -1.0375   1.9901   2.8827   8.6970  10.2021  11.0288  12.7052
    14.6890  16.8702  17.9931  20.1715  20.9017  22.1830  23.0401  23.9240
    24.3723  24.9915  26.2940  26.9665  28.1914  30.0163  30.5841  32.9381
    33.5491  34.3501  36.0092  36.5896  36.8211  37.6803  40.3931  41.9157
    43.4576  44.4956  44.7809  46.0663  47.6032  47.9916  48.2540  49.8044

     occupation numbers 
     1.0000   1.0000   1.0000   1.0000   0.0000   0.0000   0.0000   0.0000
     0.0000   0.0000   0.0000   0.0000   0.0000   0.0000   0.0000   0.0000
     0.0000   0.0000   0.0000   0.0000   0.0000   0.0000   0.0000   0.0000
     0.0000   0.0000   0.0000   0.0000   0.0000   0.0000   0.0000   0.0000
     0.0000   0.0000   0.0000   0.0000   0.0000   0.0000   0.0000   0.0000

          k =-0.3889 0.6010-0.0354 (  3337 PWs)   bands (ev):

    -2.2831  -1.0304   1.8574   2.9778   8.8573  10.6475  11.3308  11.7708
    14.5851  16.1897  18.6802  20.2570  20.8809  22.3199  23.1771  23.9250
    24.3076  24.8845  26.3222  26.8137  28.2481  30.2969  31.8312  32.2411
    33.0621  34.0726  35.9313  36.2894  37.0471  37.4308  40.4803  42.2708
    43.3264  44.0253  44.7146  45.9883  48.0561  48.2011  48.6133  49.3190

     occupation numbers 
     1.0000   1.0000   1.0000   1.0000   0.0000   0.0000   0.0000   0.0000
     0.0000   0.0000   0.0000   0.0000   0.0000   0.0000   0.0000   0.0000
     0.0000   0.0000   0.0000   0.0000   0.0000   0.0000   0.0000   0.0000
     0.0000   0.0000   0.0000   0.0000   0.0000   0.0000   0.0000   0.0000
     0.0000   0.0000   0.0000   0.0000   0.0000   0.0000   0.0000   0.0000

          k =-0.3536 0.5657 0.0000 (  3338 PWs)   bands (ev):

    -2.5552  -0.7614   1.8516   3.1568   9.0624  10.4020  10.9478  12.4024
    14.2218  15.6156  19.2902  20.3779  20.3995  22.0195  22.4555  24.1460
    24.8195  25.2250  26.3769  26.9879  28.5067  30.3587  31.2815  32.9507
    33.3153  34.4435  35.4905  35.8574  37.1091  37.5404  40.4064  42.7435
    42.9025  43.7723  44.7898  45.8648  48.4119  48.4898  48.6805  48.8671

     occupation numbers 
     1.0000   1.0000   1.0000   1.0000   0.0000   0.0000   0.0000   0.0000
     0.0000   0.0000   0.0000   0.0000   0.0000   0.0000   0.0000   0.0000
     0.0000   0.0000   0.0000   0.0000   0.0000   0.0000   0.0000   0.0000
     0.0000   0.0000   0.0000   0.0000   0.0000   0.0000   0.0000   0.0000
     0.0000   0.0000   0.0000   0.0000   0.0000   0.0000   0.0000   0.0000

          k =-0.4950 0.7071-0.0707 (  3346 PWs)   bands (ev):

    -2.3195  -1.0272   2.4109   2.7141   8.2964   8.5470  12.1713  13.9199
    15.3363  16.9484  18.0435  19.4797  20.8513  21.6682  22.5124  23.3435
    24.4623  25.8955  26.7236  26.7521  28.5800  28.7883  29.9051  31.3305
    34.8816  36.0635  36.4543  37.0175  37.0465  37.8531  40.3391  42.9286
    43.1288  43.9058  45.0474  46.1607  46.8963  47.5197  47.6413  48.3840

     occupation numbers 
     1.0000   1.0000   1.0000   1.0000   0.0000   0.0000   0.0000   0.0000
     0.0000   0.0000   0.0000   0.0000   0.0000   0.0000   0.0000   0.0000
     0.0000   0.0000   0.0000   0.0000   0.0000   0.0000   0.0000   0.0000
     0.0000   0.0000   0.0000   0.0000   0.0000   0.0000   0.0000   0.0000
     0.0000   0.0000   0.0000   0.0000   0.0000   0.0000   0.0000   0.0000

          k =-0.4596 0.6718-0.0354 (  3342 PWs)   bands (ev):

    -1.9915  -1.3282   2.1736   2.6552   8.5063   9.2576  11.9713  12.8441
    15.6083  16.7179  18.2417  19.3836  21.6161  22.2699  22.7082  23.4503
    24.0660  25.3196  26.1732  27.0787  28.4334  29.3381  30.1725  31.3865
    34.6644  35.2379  36.1369  36.4675  37.0847  37.7493  41.3113  42.1524
    43.2540  43.4582  45.1151  46.1640  47.2536  47.6587  48.1054  49.0442

     occupation numbers 
     1.0000   1.0000   1.0000   1.0000   0.0000   0.0000   0.0000   0.0000
     0.0000   0.0000   0.0000   0.0000   0.0000   0.0000   0.0000   0.0000
     0.0000   0.0000   0.0000   0.0000   0.0000   0.0000   0.0000   0.0000
     0.0000   0.0000   0.0000   0.0000   0.0000   0.0000   0.0000   0.0000
     0.0000   0.0000   0.0000   0.0000   0.0000   0.0000   0.0000   0.0000

          k =-0.4243 0.6364-0.0000 (  3336 PWs)   bands (ev):

    -1.9870  -1.3114   1.9438   2.7734   8.6581  10.1706  11.7273  11.9138
    15.3502  16.3287  18.5986  19.7293  21.4704  22.4184  23.0955  23.5274
    24.4283  25.0985  25.5037  27.0754  28.3445  29.6427  31.4009  31.7602
    33.6625  34.2901  36.1683  36.2335  37.2056  37.6025  41.1370  42.4573
    42.8320  43.7615  44.8425  46.1358  47.6067  47.8935  48.5479  49.3787

     occupation numbers 
     1.0000   1.0000   1.0000   1.0000   0.0000   0.0000   0.0000   0.0000
     0.0000   0.0000   0.0000   0.0000   0.0000   0.0000   0.0000   0.0000
     0.0000   0.0000   0.0000   0.0000   0.0000   0.0000   0.0000   0.0000
     0.0000   0.0000   0.0000   0.0000   0.0000   0.0000   0.0000   0.0000
     0.0000   0.0000   0.0000   0.0000   0.0000   0.0000   0.0000   0.0000

          k = 0.2121 0.0000-0.7071 (  3344 PWs)   bands (ev):

    -1.6803  -1.6803   2.5012   2.5012   8.3723   8.3723  13.0204  13.0204
    16.3262  16.3262  18.6264  18.6264  21.8325  21.8325  22.8761  22.8761
    24.5976  24.5976  27.1010  27.1010  28.7057  28.7057  30.0139  30.0139
    35.5057  35.5057  36.8767  36.8767  37.4015  37.4015  41.9998  41.9998
    43.0241  43.0241  45.5690  45.5690  47.2873  47.2873  48.0579  48.0579

     occupation numbers 
     1.0000   1.0000   1.0000   1.0000   0.0000   0.0000   0.0000   0.0000
     0.0000   0.0000   0.0000   0.0000   0.0000   0.0000   0.0000   0.0000
     0.0000   0.0000   0.0000   0.0000   0.0000   0.0000   0.0000   0.0000
     0.0000   0.0000   0.0000   0.0000   0.0000   0.0000   0.0000   0.0000
     0.0000   0.0000   0.0000   0.0000   0.0000   0.0000   0.0000   0.0000

          k =-0.4243 0.7071-0.1414 (  3337 PWs)   bands (ev):

    -2.7524  -0.5507   2.0916   3.0547   9.3173   9.7151  10.2925  13.6094
    14.2542  15.9585  18.9870  20.1619  20.2725  21.2407  22.1900  24.3082
    25.3272  25.6773  26.2371  27.0737  28.5867  29.0816  31.3731  33.5485
    34.3393  34.6969  35.4625  35.7480  37.2019  37.6687  39.9881  42.6196
    42.8650  44.1511  45.6017  45.7873  47.9737  48.2810  48.7746  48.7789

     occupation numbers 
     1.0000   1.0000   1.0000   1.0000   0.0000   0.0000   0.0000   0.0000
     0.0000   0.0000   0.0000   0.0000   0.0000   0.0000   0.0000   0.0000
     0.0000   0.0000   0.0000   0.0000   0.0000   0.0000   0.0000   0.0000
     0.0000   0.0000   0.0000   0.0000   0.0000   0.0000   0.0000   0.0000
     0.0000   0.0000   0.0000   0.0000   0.0000   0.0000   0.0000   0.0000

          k =-0.3889 0.6718-0.1061 (  3339 PWs)   bands (ev):

    -2.4178  -0.8854   1.9750   2.8751   9.5587   9.9164  10.5740  12.5300
    14.6017  16.4689  18.4348  20.1417  20.7398  22.2988  22.5065  24.3473
    24.6845  25.4239  26.0339  26.5083  28.3669  30.1344  31.0219  33.2189
    34.0560  34.3440  34.9881  36.0822  36.8532  37.6174  40.4227  42.2630
    43.0757  44.2956  45.5366  45.7363  48.0568  48.2027  48.5501  49.5301

     occupation numbers 
     1.0000   1.0000   1.0000   1.0000   0.0000   0.0000   0.0000   0.0000
     0.0000   0.0000   0.0000   0.0000   0.0000   0.0000   0.0000   0.0000
     0.0000   0.0000   0.0000   0.0000   0.0000   0.0000   0.0000   0.0000
     0.0000   0.0000   0.0000   0.0000   0.0000   0.0000   0.0000   0.0000
     0.0000   0.0000   0.0000   0.0000   0.0000   0.0000   0.0000   0.0000

          k =-0.3536 0.6364-0.0707 (  3340 PWs)   bands (ev):

    -2.2572  -1.0475   1.9394   2.8112   9.6123   9.8790  11.2830  11.6856
    14.6894  16.9175  17.9526  20.1464  20.8816  22.9226  23.1050  23.9276
    23.9743  25.4644  26.0979  26.2874  28.2825  30.3950  31.8704  32.0323
    33.9782  34.3404  34.7056  36.3886  36.8970  37.5161  40.4253  42.1591
    43.2231  44.4485  45.4874  45.5536  48.0082  48.1940  48.5300  50.0195

     occupation numbers 
     1.0000   1.0000   1.0000   1.0000   0.0000   0.0000   0.0000   0.0000
     0.0000   0.0000   0.0000   0.0000   0.0000   0.0000   0.0000   0.0000
     0.0000   0.0000   0.0000   0.0000   0.0000   0.0000   0.0000   0.0000
     0.0000   0.0000   0.0000   0.0000   0.0000   0.0000   0.0000   0.0000
     0.0000   0.0000   0.0000   0.0000   0.0000   0.0000   0.0000   0.0000

          k =-0.4243 0.7071-0.0707 (  3341 PWs)   bands (ev):

    -2.2021  -1.0859   2.1258   2.6059   9.2976   9.5069  10.9744  12.6634
    15.3251  16.7628  18.2549  19.6015  21.2332  22.3548  22.5772  24.0083
    24.5334  25.6460  25.8330  26.2881  28.4363  29.6981  30.5786  32.7631
    34.1388  34.9101  35.4057  35.9446  36.8066  37.8839  40.9281  42.6092
    42.7540  44.2823  45.0918  45.9452  47.6809  47.9994  48.4995  49.2961

     occupation numbers 
     1.0000   1.0000   1.0000   1.0000   0.0000   0.0000   0.0000   0.0000
     0.0000   0.0000   0.0000   0.0000   0.0000   0.0000   0.0000   0.0000
     0.0000   0.0000   0.0000   0.0000   0.0000   0.0000   0.0000   0.0000
     0.0000   0.0000   0.0000   0.0000   0.0000   0.0000   0.0000   0.0000
     0.0000   0.0000   0.0000   0.0000   0.0000   0.0000   0.0000   0.0000

          k =-0.3889 0.6718-0.0354 (  3343 PWs)   bands (ev):

    -1.9510  -1.3167   2.0417   2.5103   9.5121  10.2256  10.8666  11.6346
    15.6053  16.7501  18.2484  19.4558  21.5027  22.6469  23.4092  23.9435
    24.5125  25.1035  25.1973  26.1191  28.6219  29.7423  31.6521  32.9121
    33.3421  34.3539  34.7590  35.6825  37.3811  37.7634  41.3750  42.3792
    43.0891  43.7333  45.1669  45.6758  47.9873  48.1726  48.7285  49.6159

     occupation numbers 
     1.0000   1.0000   1.0000   1.0000   0.0000   0.0000   0.0000   0.0000
     0.0000   0.0000   0.0000   0.0000   0.0000   0.0000   0.0000   0.0000
     0.0000   0.0000   0.0000   0.0000   0.0000   0.0000   0.0000   0.0000
     0.0000   0.0000   0.0000   0.0000   0.0000   0.0000   0.0000   0.0000
     0.0000   0.0000   0.0000   0.0000   0.0000   0.0000   0.0000   0.0000

          k =-0.3536 0.6364 0.0000 (  3338 PWs)   bands (ev):

    -2.0853  -1.1839   1.9599   2.6283   9.6672  10.3468  10.7636  11.5073
    15.3325  16.5531  18.4408  19.7035  21.2570  22.4098  23.5388  24.0341
    24.6676  25.0073  25.5272  25.9355  28.5283  30.0156  31.9072  33.1020
    33.1110  34.3503  34.4272  35.8737  37.2340  37.6651  41.1060  42.6165
    42.9261  43.8266  45.2510  45.7007  48.1445  48.1521  48.8576  49.5572

     occupation numbers 
     1.0000   1.0000   1.0000   1.0000   0.0000   0.0000   0.0000   0.0000
     0.0000   0.0000   0.0000   0.0000   0.0000   0.0000   0.0000   0.0000
     0.0000   0.0000   0.0000   0.0000   0.0000   0.0000   0.0000   0.0000
     0.0000   0.0000   0.0000   0.0000   0.0000   0.0000   0.0000   0.0000
     0.0000   0.0000   0.0000   0.0000   0.0000   0.0000   0.0000   0.0000

          k = 0.2828 0.0000-0.7071 (  3342 PWs)   bands (ev):

    -1.6403  -1.6403   2.2945   2.2945   9.3599   9.3599  11.7785  11.7785
    16.3271  16.3271  18.7007  18.7007  22.2461  22.2461  23.4535  23.4535
    24.3924  24.3924  26.1964  26.1964  29.0239  29.0239  31.4228  31.4228
    34.7379  34.7379  35.3150  35.3150  37.6263  37.6263  42.2880  42.2880
    42.8958  42.8958  45.5543  45.5543  47.8602  47.8602  48.8659  48.8659

     occupation numbers 
     1.0000   1.0000   1.0000   1.0000   0.0000   0.0000   0.0000   0.0000
     0.0000   0.0000   0.0000   0.0000   0.0000   0.0000   0.0000   0.0000
     0.0000   0.0000   0.0000   0.0000   0.0000   0.0000   0.0000   0.0000
     0.0000   0.0000   0.0000   0.0000   0.0000   0.0000   0.0000   0.0000
     0.0000   0.0000   0.0000   0.0000   0.0000   0.0000   0.0000   0.0000

          k = 0.3536 0.0000-0.7071 (  3316 PWs)   bands (ev):

    -1.6246  -1.6246   2.2201   2.2201  10.2029  10.2029  10.8513  10.8513
    16.3287  16.3287  18.7309  18.7309  22.1642  22.1642  24.2815  24.2815
    24.4337  24.4337  25.2980  25.2980  29.2000  29.2000  33.0004  33.0004
    33.1801  33.1801  34.9271  34.9271  37.7633  37.7633  42.1572  42.1572
    43.2009  43.2009  45.3033  45.3033  48.2110  48.2110  49.2953  49.2953

     occupation numbers 
     1.0000   1.0000   1.0000   1.0000   0.0000   0.0000   0.0000   0.0000
     0.0000   0.0000   0.0000   0.0000   0.0000   0.0000   0.0000   0.0000
     0.0000   0.0000   0.0000   0.0000   0.0000   0.0000   0.0000   0.0000
     0.0000   0.0000   0.0000   0.0000   0.0000   0.0000   0.0000   0.0000
     0.0000   0.0000   0.0000   0.0000   0.0000   0.0000   0.0000   0.0000

     the Fermi energy is     6.0704 ev
     (compare with:     6.4004 eV, computed in scf)

     Writing all to output data dir ./wavefunc/Si.save/
 
     init_run     :      0.05s CPU      0.10s WALL (       1 calls)
     electrons    :     44.35s CPU     45.32s WALL (       1 calls)

     Called by init_run:
     wfcinit      :      0.00s CPU      0.00s WALL (       1 calls)
     wfcinit:wfcr :      0.78s CPU      0.83s WALL (     256 calls)
     potinit      :      0.00s CPU      0.03s WALL (       1 calls)
     hinit0       :      0.02s CPU      0.02s WALL (       1 calls)

     Called by electrons:
     c_bands      :     44.34s CPU     45.29s WALL (       1 calls)
     v_of_rho     :      0.00s CPU      0.01s WALL (       1 calls)
     v_h          :      0.00s CPU      0.00s WALL (       1 calls)
     v_xc         :      0.00s CPU      0.00s WALL (       1 calls)

     Called by c_bands:
     init_us_2    :      0.01s CPU      0.01s WALL (     256 calls)
     init_us_2:cp :      0.01s CPU      0.01s WALL (     256 calls)
     cegterg      :     43.35s CPU     44.19s WALL (     710 calls)

     Called by sum_band:

     Called by *egterg:
     cdiaghg      :     20.01s CPU     20.19s WALL (   12037 calls)
     cegterg:over :      1.82s CPU      1.88s WALL (   11781 calls)
     cegterg:upda :      0.66s CPU      0.67s WALL (   11781 calls)
     cegterg:last :      1.18s CPU      1.19s WALL (    6846 calls)
     h_psi        :     19.30s CPU     19.94s WALL (   12747 calls)
     g_psi        :      0.14s CPU      0.14s WALL (   11781 calls)

     Called by h_psi:
     h_psi:calbec :      0.48s CPU      0.50s WALL (   12747 calls)
     vloc_psi     :     18.53s CPU     19.14s WALL (   12747 calls)
     add_vuspsi   :      0.19s CPU      0.20s WALL (   12747 calls)

     General routines
     calbec       :      0.46s CPU      0.48s WALL (   12747 calls)
     fft          :      0.00s CPU      0.00s WALL (      11 calls)
     ffts         :      0.00s CPU      0.00s WALL (       1 calls)
     fftw         :     15.27s CPU     15.77s WALL (  581608 calls)
     interpolate  :      0.00s CPU      0.00s WALL (       1 calls)
     davcio       :      0.03s CPU      0.03s WALL (     512 calls)
 
     Parallel routines
 
     PWSCF        :     44.88s CPU     48.10s WALL

 
   This run was terminated on:  14:31:25  16Jan2024            

=------------------------------------------------------------------------------=
   JOB DONE.
=------------------------------------------------------------------------------=
