[0] MPI startup(): Intel(R) MPI Library, Version 2021.6  Build 20220227 (id: 28877f3f32)
[0] MPI startup(): Copyright (C) 2003-2022 Intel Corporation.  All rights reserved.
[0] MPI startup(): library kind: release
[0] MPI startup(): libfabric version: 1.13.2rc1-impi
[0] MPI startup(): libfabric provider: psm2
[0] MPI startup(): File "/opt/intel/oneapi/mpi/2021.6.0/etc/tuning_icx_shm-ofi_psm2.dat" not found
[0] MPI startup(): Load tuning file: "/opt/intel/oneapi/mpi/2021.6.0/etc/tuning_icx_shm-ofi.dat"
[0] MPI startup(): File "/opt/intel/oneapi/mpi/2021.6.0/etc/tuning_icx_shm-ofi.dat" not found
[0] MPI startup(): Load tuning file: "/opt/intel/oneapi/mpi/2021.6.0/etc/tuning_clx-ap_shm-ofi.dat"
[0] MPI startup(): Rank    Pid      Node name  Pin cpu
[0] MPI startup(): 0       594404   n008.hpc   {0}
[0] MPI startup(): 1       594405   n008.hpc   {1}
[0] MPI startup(): 2       594406   n008.hpc   {2}
[0] MPI startup(): 3       594407   n008.hpc   {3}
[0] MPI startup(): 4       594408   n008.hpc   {4}
[0] MPI startup(): 5       594409   n008.hpc   {5}
[0] MPI startup(): 6       594410   n008.hpc   {6}
[0] MPI startup(): 7       594411   n008.hpc   {7}
[0] MPI startup(): 8       594412   n008.hpc   {8}
[0] MPI startup(): 9       594413   n008.hpc   {9}
[0] MPI startup(): 10      594414   n008.hpc   {10}
[0] MPI startup(): 11      594415   n008.hpc   {11}
[0] MPI startup(): 12      594416   n008.hpc   {12}
[0] MPI startup(): 13      594417   n008.hpc   {13}
[0] MPI startup(): 14      594418   n008.hpc   {14}
[0] MPI startup(): 15      594419   n008.hpc   {15}
[0] MPI startup(): I_MPI_ROOT=/opt/intel/oneapi/mpi/2021.6.0
[0] MPI startup(): I_MPI_MPIRUN=mpirun
[0] MPI startup(): I_MPI_HYDRA_TOPOLIB=hwloc
[0] MPI startup(): I_MPI_HYDRA_BOOTSTRAP=slurm
[0] MPI startup(): I_MPI_INTERNAL_MEM_POLICY=default
[0] MPI startup(): I_MPI_DEBUG=5

     Program DOS v.7.2 starts on 16Jan2024 at 14:37:56 

     This program is part of the open-source Quantum ESPRESSO suite
     for quantum simulation of materials; please cite
         "P. Giannozzi et al., J. Phys.:Condens. Matter 21 395502 (2009);
         "P. Giannozzi et al., J. Phys.:Condens. Matter 29 465901 (2017);
         "P. Giannozzi et al., J. Chem. Phys. 152 154105 (2020);
          URL http://www.quantum-espresso.org", 
     in publications or presentations arising from this work. More details at
     http://www.quantum-espresso.org/quote

     Parallel version (MPI), running on    16 processors

     MPI processes distributed on     1 nodes
     R & G space division:  proc/nbgrp/npool/nimage =      16
     105202 MiB available memory on the printing compute node when the environment starts
 

     Reading xml data from directory:

     ./wavefunc/Si.save/

     IMPORTANT: XC functional enforced from input :
     Exchange-correlation= PBE
                           (   1   4   3   4   0   0   0)
     Any further DFT definition will be discarded
     Please, verify this is what you really want

 
     Parallelization info
     --------------------
     sticks:   dense  smooth     PW     G-vecs:    dense   smooth      PW
     Min         147      73     21                 4733     1675     267
     Max         151      74     22                 4735     1676     269
     Sum        2371    1177    349                75745    26813    4285
 
     Using Slab Decomposition
 

     Gaussian broadening (read from input): ngauss,degauss=   0    0.010000

 
     DOS          :      0.22s CPU      0.24s WALL

 
   This run was terminated on:  14:37:56  16Jan2024            

=------------------------------------------------------------------------------=
   JOB DONE.
=------------------------------------------------------------------------------=
