ANIMSTEPS    6
CRYSTAL
PRIMVEC
    2.738838604    2.738838604    0.000000000
    0.000000000    2.738838604    2.738838604
    2.738838604    0.000000000    2.738838604
PRIMCOORD    1
      2   1
   Si     0.00000   0.00000   0.00000   0.00000  -0.07071   0.00000
   Si     1.36942   1.36942   1.36942   0.00000  -0.07071   0.00000
PRIMCOORD    2
      2   1
   Si     0.00000   0.00000   0.00000  -0.07071   0.00000   0.00000
   Si     1.36942   1.36942   1.36942  -0.07071   0.00000   0.00000
PRIMCOORD    3
      2   1
   Si     0.00000   0.00000   0.00000   0.00000   0.00000  -0.07071
   Si     1.36942   1.36942   1.36942   0.00000   0.00000  -0.07071
PRIMCOORD    4
      2   1
   Si     0.00000   0.00000   0.00000   0.00000   0.07071   0.00000
   Si     1.36942   1.36942   1.36942   0.00000  -0.07071   0.00000
PRIMCOORD    5
      2   1
   Si     0.00000   0.00000   0.00000   0.00000   0.00000  -0.07071
   Si     1.36942   1.36942   1.36942   0.00000   0.00000   0.07071
PRIMCOORD    6
      2   1
   Si     0.00000   0.00000   0.00000  -0.07071   0.00000   0.00000
   Si     1.36942   1.36942   1.36942   0.07071   0.00000   0.00000
